# vtk DataFile Version 3.0
d-2__ created by libgimli-v1.0.12
ASCII
DATASET UNSTRUCTURED_GRID
POINTS 3084 double
-20	0	0
-20	-30	0
51.5	-30	0
51.5	0	0
-2	-7	0
-2	0	0
33.6	0	0
33.6	-7	0
0	0	0
-0.0061972976617883	-0.072937436538488	0
0.5	0	0
0.4998927498399	-0.067414434370764	0
1	0	0
0.99973211696394	-0.063583736472298	0
1.5	0	0
1.498776620701	-0.062765591180379	0
2	0	0
1.9989029980482	-0.062574333615768	0
2.5	0	0
2.4993380716326	-0.06105328059741	0
3	0	0
2.9986604865551	-0.059098965179983	0
3.5	0	0
3.4967097404867	-0.058245794052387	0
4	0	0
3.9948206771498	-0.059561051143764	0
4.5	0	0
4.494351922885	-0.060876242027054	0
5	0	0
4.9942728252788	-0.060094262690716	0
5.5	0	0
5.4936337002994	-0.057166170674856	0
6	0	0
5.9931941511509	-0.07247231635452	0
6.5	0	0
6.4989190390882	-0.069551948148213	0
7	0	0
7.0018717890915	-0.063146638024595	0
7.5	0	0
7.5022120198378	-0.059964501720066	0
8	0	0
8.0033423753438	-0.053839667199867	0
8.5	0	0
8.4989616908564	-0.057299228161716	0
9	0	0
8.9942296744346	-0.06023147290315	0
9.5	0	0
9.4961646826453	-0.059743702590136	0
10	0	0
9.995943293647	-0.059635530430265	0
10.5	0	0
10.496029689884	-0.05980492022053	0
11	0	0
10.996499847355	-0.059771940983341	0
11.5	0	0
11.4966623679	-0.058915122699686	0
12	0	0
11.996384063423	-0.058878866093537	0
12.5	0	0
12.496348168082	-0.058577075719166	0
13	0	0
12.995585973048	-0.057371997285188	0
13.5	0	0
13.493867929594	-0.05787433880513	0
14	0	0
13.993166522457	-0.060322344498974	0
14.5	0	0
14.494301866857	-0.062512653140656	0
15	0	0
14.996325684726	-0.063521277561172	0
15.5	0	0
15.498138975458	-0.063455679507126	0
16	0	0
15.998926798266	-0.062489188707313	0
16.5	0	0
16.498890177999	-0.06198078268473	0
17	0	0
16.998853516323	-0.061677607506194	0
17.5	0	0
17.498466594108	-0.061074422830095	0
18	0	0
17.998031535518	-0.061792145532726	0
18.5	0	0
18.498570019578	-0.062182968667692	0
19	0	0
18.999163590551	-0.061045889607171	0
19.5	0	0
19.499259599403	-0.060520561026893	0
20	0	0
19.99937608103	-0.059788841502427	0
20.5	0	0
20.498584509538	-0.058284725758434	0
21	0	0
20.996895571723	-0.058399573217134	0
21.5	0	0
21.495879434251	-0.059836741629284	0
22	0	0
21.995957210702	-0.061310962716624	0
22.5	0	0
22.496674277742	-0.062420738627446	0
23	0	0
22.997244721055	-0.061913327858662	0
23.5	0	0
23.49797661073	-0.058183003634903	0
24	0	0
23.99855998075	-0.065032298227153	0
24.5	0	0
24.501873473427	-0.068851682214037	0
25	0	0
24.998678015656	-0.062121379719779	0
25.5	0	0
25.496421079187	-0.0622902139054	0
26	0	0
25.998107519375	-0.061853752122889	0
26.5	0	0
26.50322723043	-0.067883987753395	0
27	0	0
26.999729066094	-0.061361050862118	0
27.5	0	0
27.497956901051	-0.062543345842306	0
28	0	0
27.998413328678	-0.063687058857513	0
28.5	0	0
28.49908049042	-0.063471046394994	0
29	0	0
28.999339159455	-0.0632234542721	0
29.5	0	0
29.499937338735	-0.06330052892792	0
30	0	0
30.000703492314	-0.06260195610981	0
30.5	0	0
30.500807541251	-0.061296694788785	0
31	0	0
31.000466337166	-0.060493105940792	0
31.5	0	0
31.502739122836	-0.060884904829108	0
15.8	-7	0
15.75	-30	0
0.25	0	0
1.25	0	0
2.25	0	0
1.75	0	0
0.75	0	0
3.25	0	0
4.25	0	0
3.75	0	0
5.25	0	0
6.25	0	0
6.75	0	0
5.75	0	0
4.75	0	0
2.75	0	0
7.75	0	0
8.75	0	0
8.25	0	0
9.75	0	0
10.75	0	0
10.25	0	0
9.25	0	0
11.75	0	0
12.75	0	0
12.25	0	0
13.75	0	0
14.75	0	0
15.25	0	0
14.25	0	0
13.25	0	0
11.25	0	0
7.25	0	0
-1	0	0
15.75	0	0
16.25	0	0
17.25	0	0
16.75	0	0
18.25	0	0
19.25	0	0
18.75	0	0
17.75	0	0
20.25	0	0
21.25	0	0
20.75	0	0
22.25	0	0
23.25	0	0
23.75	0	0
22.75	0	0
21.75	0	0
19.75	0	0
24.75	0	0
25.75	0	0
25.25	0	0
26.75	0	0
26.25	0	0
27.75	0	0
28.75	0	0
28.25	0	0
29.75	0	0
30.75	0	0
31.25	0	0
30.25	0	0
29.25	0	0
27.25	0	0
24.25	0	0
32.55	0	0
0.125	0	0
0.375	0	0
1.125	0	0
1.375	0	0
2.125	0	0
2.375	0	0
1.625	0	0
1.875	0	0
0.625	0	0
0.875	0	0
3.125	0	0
3.375	0	0
4.125	0	0
4.375	0	0
3.625	0	0
3.875	0	0
5.125	0	0
5.375	0	0
6.125	0	0
6.375	0	0
6.625	0	0
6.875	0	0
5.625	0	0
5.875	0	0
4.625	0	0
4.875	0	0
2.625	0	0
2.875	0	0
7.625	0	0
7.875	0	0
8.625	0	0
8.875	0	0
8.125	0	0
8.375	0	0
9.625	0	0
9.875	0	0
10.625	0	0
10.875	0	0
10.125	0	0
10.375	0	0
9.125	0	0
9.375	0	0
11.625	0	0
11.875	0	0
12.625	0	0
12.875	0	0
12.125	0	0
12.375	0	0
13.625	0	0
13.875	0	0
14.625	0	0
14.875	0	0
15.125	0	0
15.375	0	0
14.125	0	0
14.375	0	0
13.125	0	0
13.375	0	0
11.125	0	0
11.375	0	0
7.125	0	0
7.375	0	0
-0.5	0	0
15.625	0	0
15.875	0	0
16.125	0	0
16.375	0	0
17.125	0	0
17.375	0	0
16.625	0	0
16.875	0	0
18.125	0	0
18.375	0	0
19.125	0	0
19.375	0	0
18.625	0	0
18.875	0	0
17.625	0	0
17.875	0	0
20.125	0	0
20.375	0	0
21.125	0	0
21.375	0	0
20.625	0	0
20.875	0	0
22.125	0	0
22.375	0	0
23.125	0	0
23.375	0	0
23.625	0	0
23.875	0	0
22.625	0	0
22.875	0	0
21.625	0	0
21.875	0	0
19.625	0	0
19.875	0	0
24.625	0	0
24.875	0	0
25.625	0	0
25.875	0	0
25.125	0	0
25.375	0	0
26.625	0	0
26.875	0	0
26.125	0	0
26.375	0	0
27.625	0	0
27.875	0	0
28.625	0	0
28.875	0	0
28.125	0	0
28.375	0	0
29.625	0	0
29.875	0	0
30.625	0	0
30.875	0	0
31.125	0	0
31.375	0	0
30.125	0	0
30.375	0	0
29.125	0	0
29.375	0	0
27.125	0	0
27.375	0	0
24.125	0	0
24.375	0	0
32.025	0	0
0.0625	0	0
0.4375	0	0
1.0625	0	0
1.4375	0	0
2.0625	0	0
2.4375	0	0
1.5625	0	0
1.9375	0	0
0.5625	0	0
0.9375	0	0
3.0625	0	0
3.4375	0	0
4.0625	0	0
4.4375	0	0
3.5625	0	0
3.9375	0	0
5.0625	0	0
5.4375	0	0
6.0625	0	0
6.4375	0	0
6.5625	0	0
6.9375	0	0
5.5625	0	0
5.9375	0	0
4.5625	0	0
4.9375	0	0
2.5625	0	0
2.9375	0	0
7.5625	0	0
7.9375	0	0
8.5625	0	0
8.9375	0	0
8.0625	0	0
8.4375	0	0
9.5625	0	0
9.9375	0	0
10.5625	0	0
10.9375	0	0
10.0625	0	0
10.4375	0	0
9.0625	0	0
9.4375	0	0
11.5625	0	0
11.9375	0	0
12.5625	0	0
12.9375	0	0
12.0625	0	0
12.4375	0	0
13.5625	0	0
13.9375	0	0
14.5625	0	0
14.9375	0	0
15.0625	0	0
15.4375	0	0
14.0625	0	0
14.4375	0	0
13.0625	0	0
13.4375	0	0
11.0625	0	0
11.4375	0	0
7.0625	0	0
7.4375	0	0
-0.25	0	0
15.5625	0	0
15.9375	0	0
16.0625	0	0
16.4375	0	0
17.0625	0	0
17.4375	0	0
16.5625	0	0
16.9375	0	0
18.0625	0	0
18.4375	0	0
19.0625	0	0
19.4375	0	0
18.5625	0	0
18.9375	0	0
17.5625	0	0
17.9375	0	0
20.0625	0	0
20.4375	0	0
21.0625	0	0
21.4375	0	0
20.5625	0	0
20.9375	0	0
22.0625	0	0
22.4375	0	0
23.0625	0	0
23.4375	0	0
23.5625	0	0
23.9375	0	0
22.5625	0	0
22.9375	0	0
21.5625	0	0
21.9375	0	0
19.5625	0	0
19.9375	0	0
24.5625	0	0
24.9375	0	0
25.5625	0	0
25.9375	0	0
25.0625	0	0
25.4375	0	0
26.5625	0	0
26.9375	0	0
26.0625	0	0
26.4375	0	0
27.5625	0	0
27.9375	0	0
28.5625	0	0
28.9375	0	0
28.0625	0	0
28.4375	0	0
29.5625	0	0
29.9375	0	0
30.5625	0	0
30.9375	0	0
31.0625	0	0
31.4375	0	0
30.0625	0	0
30.4375	0	0
29.0625	0	0
29.4375	0	0
27.0625	0	0
27.4375	0	0
24.0625	0	0
24.4375	0	0
31.7625	0	0
-0.125	0	0
31.63125	0	0
-0.0625	0	0
31.565625	0	0
0.08325327350253	-0.11526063586429	0
0.40962211011273	-0.10086844404483	0
1.0903831793719	-0.10051005960974	0
1.4088633485398	-0.092377445651083	0
2.0895889460806	-0.099121415167152	0
2.4094463995864	-0.090336621119841	0
1.5891191166863	-0.099757317991164	0
1.9087300458268	-0.092225943629313	0
0.59135179769559	-0.10554301070041	0
0.9103851287737	-0.09426318283027	0
3.0884802171992	-0.093350065456892	0
3.4061875195046	-0.085582345140593	0
4.0824837586633	-0.095127289994258	0
4.4020491588252	-0.08931394370908	0
3.585144900023	-0.092658475675681	0
3.9031455136136	-0.08701426392681	0
5.0816893396297	-0.094888769511811	0
5.401297219788	-0.085687118002513	0
7.0940588040824	-0.099184788372793	0
7.2144664364233	-0.10625757338425	0
7.5047791701762	-0.17610800084867	0
6.3119296840201	-0.094053530951617	0
5.5791998524855	-0.087646659323003	0
5.8971921088225	-0.10895479905512	0
4.58209083931	-0.096678529709345	0
4.9020770868993	-0.088768142675442	0
2.5900508306196	-0.09634500756761	0
2.9088287107243	-0.0873786051961	0
8.3572005342796	-0.21238065607564	0
7.9154275953386	-0.082255380078012	0
8.5865924689107	-0.089015245888254	0
8.9014583351309	-0.086695013533802	0
8.0943302765699	-0.080535468089783	0
8.409788864726	-0.088474636169397	0
9.5848210877154	-0.094807639146339	0
9.9044106786028	-0.087672336381305	0
10.584881361999	-0.095054428305291	0
10.905117530024	-0.087988037570512	0
10.084600208794	-0.094731216483626	0
10.404470782996	-0.087842756868717	0
9.0828987354042	-0.096189486136393	0
9.4048149808963	-0.087932426750952	0
11.585716895557	-0.093402781387445	0
11.905152189804	-0.086462312101107	0
12.58518994203	-0.092620791886012	0
12.904268567746	-0.084553353499313	0
12.085320936312	-0.093494291137257	0
12.405070784945	-0.086302634351363	0
13.580861383504	-0.09251783168643	0
13.90027257008	-0.087938031848652	0
14.582554128052	-0.099837266328561	0
14.904349717284	-0.093342970845469	0
15.085853014705	-0.10112619167741	0
15.407222899566	-0.093577815105385	0
14.080314413712	-0.096648901066036	0
14.401474542638	-0.091485296859827	0
13.083558973266	-0.090922014285722	0
13.401811423781	-0.084621855068632	0
11.085646339858	-0.094670142671654	0
11.405530410992	-0.086772752920274	0
5.9796914362302	-0.21248832335074	0
6.7134532362683	-0.11456341210122	0
15.588507875361	-0.10065405373572	0
15.908736647463	-0.09225382711411	0
16.089436115958	-0.099094934905836	0
16.40882484314	-0.091276897387989	0
17.089241686573	-0.097775198999752	0
17.408360069662	-0.089875935847574	0
16.589335649356	-0.09845022718148	0
16.908784984829	-0.09088625847815	0
18.088076948196	-0.098448176616342	0
18.408160356656	-0.091528491787601	0
19.089915397175	-0.096670921122613	0
19.409389763852	-0.089044406339854	0
18.589133801001	-0.098519716932787	0
18.909169156554	-0.090070504778569	0
17.588506567801	-0.097089769519043	0
17.907598766134	-0.090574846432386	0
20.090083656363	-0.094441907596937	0
20.408763103856	-0.08595532869634	0
21.08570454476	-0.093042084091813	0
21.404480010415	-0.087443792255877	0
20.588401035716	-0.092274078944901	0
20.906329286289	-0.085521721752203	0
22.084767775097	-0.097750135322163	0
22.405203980997	-0.091538347215456	0
23.086727186182	-0.097882543405149	0
23.407247397383	-0.087887767877884	0
23.586294876271	-0.08813614220353	0
23.905928095699	-0.10094384496024	0
22.58596565658	-0.099161038804708	0
22.906156313159	-0.091299532988502	0
21.584406603897	-0.095446092315357	0
[...]
CELL_DATA 5681
SCALARS _Attribute double 1
LOOKUP_TABLE default
0 0 0 0 0 0 0 0 0 0 0 0 0 0 0 0 0 0 0 0 0 0 0 0 0 0 0 0 0 0 0 0 0 0 0 0 0 0 0 0 0 0 0 0 0 0 0 0 0 0 0 0 0 0 0 0 0 0 0 0 0 0 0 0 0 0 0 0 0 0 0 0 0 0 0 0 0 0 0 0 0 0 0 0 0 0 0 0 0 0 0 0 0 0 0 0 0 0 0 0 0 0 0 0 0 0 0 0 0 0 0 0 0 0 0 0 0 0 0 0 0 0 0 0 0 0 0 0 0 0 0 0 0 0 0 0 0 0 0 0 0 0 0 0 0 0 0 0 0 0 0 0 0 0 0 0 0 0 0 0 0 0 0 0 0 0 0 0 0 0 0 0 0 0 0 0 0 0 0 0 0 0 0 0 0 0 0 0 0 0 0 0 0 0 0 0 0 0 0 0 0 0 0 0 0 0 0 0 0 0 0 0 0 0 0 0 0 0 0 0 0 0 0 0 0 0 0 0 0 0 0 0 0 0 0 0 0 0 0 0 0 0 0 0 0 0 0 0 0 0 0 0 0 0 0 0 0 0 0 0 0 0 0 0 0 0 0 0 0 0 0 0 0 0 0 0 0 0 0 0 0 0 0 0 0 0 0 0 0 0 0 0 0 0 0 0 0 0 0 0 0 0 0 0 0 0 0 0 0 0 0 0 0 0 0 0 0 0 0 0 0 0 0 0 0 0 0 0 0 0 0 0 0 0 0 0 0 0 0 0 0 0 0 0 0 0 0 0 0 0 0 0 0 0 0 0 0 0 0 0 0 0 0 0 0 0 0 0 0 0 0 0 0 0 0 0 0 0 0 0 0 0 0 0 0 0 0 0 0 0 0 0 0 0 0 0 0 0 0 0 0 0 0 0 0 0 0 0 0 0 0 0 0 0 0 0 0 0 0 0 0 0 0 0 0 0 0 0 0 0 0 0 0 0 0 0 0 0 0 0 0 0 0 0 0 0 0 0 0 0 0 0 0 0 0 0 0 0 0 0 0 0 0 0 0 0 0 0 0 0 0 0 0 0 0 0 0 0 0 0 0 0 0 0 0 0 0 0 0 0 0 0 0 0 0 0 0 0 0 0 0 0 0 0 0 0 0 0 0 0 0 0 0 0 0 0 0 0 0 0 0 0 0 0 0 0 0 0 0 0 0 0 0 0 0 0 0 0 0 0 0 0 0 0 0 0 0 0 0 0 0 0 0 0 0 0 0 0 0 0 0 0 0 0 0 0 0 0 0 0 0 0 0 0 0 0 0 0 0 0 0 0 0 0 0 0 0 0 0 0 0 0 0 0 0 0 0 0 0 0 0 0 0 0 0 0 0 0 0 0 0 0 0 0 0 0 0 0 0 0 0 0 0 0 0 0 0 0 0 0 0 0 0 0 0 0 0 0 0 0 0 0 0 0 0 0 0 0 0 0 0 0 0 0 0 0 0 0 0 0 0 0 0 0 0 0 0 0 0 0 0 0 0 0 0 0 0 0 0 0 0 0 0 0 0 0 0 0 0 0 0 0 0 0 0 0 0 0 0 0 0 0 0 0 0 0 0 0 0 0 0 0 0 0 0 0 0 0 0 0 0 0 0 0 0 0 0 0 0 0 0 0 0 0 0 0 0 0 0 0 0 0 0 0 0 0 0 0 0 0 0 0 0 0 0 0 0 0 0 0 0 0 0 0 0 0 0 0 0 0 0 0 0 0 0 0 0 0 0 0 0 0 0 0 0 0 0 0 0 0 0 0 0 0 0 0 0 0 0 0 0 0 0 0 0 0 0 0 0 0 0 0 0 0 0 0 0 0 0 0 0 0 0 0 0 0 0 0 0 0 0 0 0 0 0 0 0 0 0 0 0 0 0 0 0 0 0 0 0 0 0 0 0 0 0 0 0 0 0 0 0 0 0 0 0 0 0 0 0 0 0 0 0 0 0 0 0 0 0 0 0 0 0 0 0 0 0 0 0 0 0 0 0 0 0 0 0 0 0 0 0 0 0 0 0 0 0 0 0 0 0 0 0 0 0 0 0 0 0 0 0 0 0 0 0 0 0 0 0 0 0 0 0 0 0 0 0 0 0 0 0 0 0 0 0 0 0 0 0 0 0 0 0 0 0 0 0 0 0 0 0 0 0 0 0 0 0 0 0 0 0 0 0 0 0 0 0 0 0 0 0 0 0 0 0 0 0 0 0 0 0 0 0 0 0 0 0 0 0 0 0 0 0 0 0 0 0 0 0 0 0 0 0 0 0 0 0 0 0 0 0 0 0 0 0 0 0 0 0 0 0 0 0 0 0 0 0 0 0 0 0 0 0 0 0 0 0 0 0 0 0 0 0 0 0 0 0 0 0 0 0 0 0 0 0 0 0 0 0 0 0 0 0 0 0 0 0 0 0 0 0 0 0 0 0 0 0 0 0 0 0 0 0 0 0 0 0 0 0 0 0 0 0 0 0 0 0 0 0 0 0 0 0 0 0 0 0 0 0 0 0 0 0 0 0 0 0 0 0 0 0 0 0 0 0 0 0 0 0 0 0 0 0 0 0 0 0 0 0 0 0 0 0 0 0 0 0 0 0 0 0 0 0 0 0 0 0 0 0 0 0 0 0 0 0 0 0 0 0 0 0 0 0 0 0 0 0 0 0 0 0 0 0 0 0 0 0 0 0 0 0 0 0 0 0 0 0 0 0 0 0 0 0 0 0 0 0 0 0 0 0 0 0 0 0 0 0 0 0 0 0 0 0 0 0 0 0 0 0 0 0 0 0 0 0 0 0 0 0 0 0 0 0 0 0 0 0 0 0 0 0 0 0 0 0 0 0 0 0 0 0 0 0 0 0 0 0 0 0 0 0 0 0 0 0 0 0 0 0 0 0 0 0 0 0 0 0 0 0 0 0 0 0 0 0 0 0 0 0 0 0 0 0 0 0 0 0 0 0 0 0 0 0 0 0 0 0 0 0 0 0 0 0 0 0 0 0 0 0 0 0 0 0 0 0 0 0 0 0 0 0 0 0 0 0 0 0 0 0 0 0 0 0 0 0 0 0 0 0 0 0 0 0 0 0 0 0 0 0 0 0 0 0 0 0 0 0 0 0 0 0 0 0 0 0 0 0 0 0 0 0 0 0 0 0 0 0 0 0 0 0 0 0 0 0 0 0 0 0 0 0 0 0 0 0 0 0 0 0 0 0 0 0 0 0 0 0 0 0 0 0 0 0 0 0 0 0 0 0 0 0 0 0 0 0 0 0 0 0 0 0 0 0 0 0 0 0 0 0 0 0 0 0 0 0 0 0 0 0 0 0 0 0 0 0 0 0 0 0 0 0 0 0 0 0 0 0 0 0 0 0 0 0 0 0 0 0 0 0 0 0 0 0 0 0 0 0 0 0 0 0 0 0 0 0 0 0 0 0 0 0 0 0 0 0 0 0 0 0 0 0 0 0 0 0 0 0 0 0 0 0 0 0 0 0 0 0 0 0 0 0 0 0 0 0 0 0 0 0 0 0 0 0 0 0 0 0 0 0 0 0 0 0 0 0 0 0 0 0 0 0 0 0 0 0 0 0 0 0 0 0 0 0 0 0 0 0 0 0 0 0 0 0 0 0 0 0 0 0 0 0 0 0 0 0 0 0 0 0 0 0 0 0 0 0 0 0 0 0 0 0 0 0 0 0 0 0 0 0 0 0 0 0 0 0 0 0 0 0 0 0 0 0 0 0 0 0 0 0 0 0 0 0 0 0 0 0 0 0 0 0 0 0 0 0 0 0 0 0 0 0 0 0 0 0 0 0 0 0 0 0 0 0 0 0 0 0 0 0 0 0 0 0 0 0 0 0 0 0 0 0 0 0 0 0 0 0 0 0 0 0 0 0 0 0 0 0 0 0 0 0 0 0 0 0 0 0 0 0 0 0 0 0 0 0 0 0 0 0 0 0 0 0 0 0 0 0 0 0 0 0 0 0 0 0 0 0 0 0 0 0 0 0 0 0 0 0 0 0 0 0 0 0 0 0 0 0 0 0 0 0 0 0 0 0 0 0 0 0 0 0 0 0 0 0 0 0 0 0 0 0 0 0 0 0 0 0 0 0 0 0 0 0 0 0 0 0 0 0 0 0 0 0 0 0 0 0 0 0 0 0 0 0 0 0 0 0 0 0 0 0 0 0 0 0 0 0 0 0 0 0 0 0 0 0 0 0 0 0 0 0 0 0 0 0 0 0 0 0 0 0 0 0 0 0 0 0 0 0 0 0 0 0 0 0 0 0 0 0 0 0 0 0 0 0 0 0 0 0 0 0 0 0 0 0 0 0 0 0 0 0 0 0 0 0 0 0 0 0 0 0 0 0 0 0 0 0 0 0 0 0 0 0 0 0 0 0 0 0 0 0 0 0 0 0 0 0 0 0 0 0 0 0 0 0 0 0 0 0 0 0 0 0 0 0 0 0 0 0 0 0 0 0 0 0 0 0 0 0 0 0 0 0 0 0 0 0 0 0 0 0 0 0 0 0 0 0 0 0 0 0 0 0 0 0 0 0 0 0 0 0 0 0 0 0 0 0 0 0 0 0 0 0 0 0 0 0 0 0 0 0 0 0 0 0 0 0 0 0 0 0 0 0 0 0 0 0 0 0 0 0 0 0 0 0 0 0 0 0 0 0 0 0 0 0 0 0 0 0 0 0 0 0 0 0 0 0 0 0 0 0 0 0 0 0 0 0 0 0 0 0 0 0 0 0 0 0 0 0 0 0 0 0 0 0 0 0 0 0 0 0 0 0 0 0 0 0 0 0 0 0 0 0 0 0 0 0 0 0 0 0 0 0 0 0 0 0 0 0 0 0 0 0 0 0 0 0 0 0 0 0 0 0 0 0 0 0 0 0 0 0 0 0 0 0 0 0 0 0 0 0 0 0 0 0 0 0 0 0 0 0 0 0 0 0 0 0 0 0 0 0 0 0 0 0 0 0 0 0 0 0 0 0 0 0 0 0 0 0 0 0 0 0 0 0 0 0 0 0 0 0 0 0 0 0 0 0 0 0 0 0 0 0 0 0 0 0 0 0 0 0 0 0 0 0 0 0 0 0 0 0 0 0 0 0 0 0 0 0 0 0 0 0 0 0 0 0 0 0 0 0 0 0 0 0 0 0 0 0 0 0 0 0 0 0 0 0 0 0 0 0 0 0 0 0 0 0 0 0 0 0 0 0 0 0 0 0 0 0 0 0 0 0 0 0 0 0 0 0 0 0 0 0 0 0 0 0 0 0 0 0 0 0 0 0 0 0 0 0 0 0 0 0 0 0 0 0 0 0 0 0 0 0 0 0 0 0 0 0 0 0 0 0 0 0 0 0 0 0 0 0 0 0 0 0 0 0 0 0 0 0 0 0 0 0 0 0 0 0 0 0 0 0 0 0 0 0 0 0 0 0 0 0 0 0 0 0 0 0 0 0 0 0 0 0 0 0 0 0 0 0 0 0 0 0 0 0 0 0 0 0 0 0 0 0 0 0 0 0 0 0 0 0 0 0 0 0 0 0 0 0 0 0 0 0 0 0 0 0 0 0 0 0 0 0 0 0 0 0 0 0 0 0 0 0 0 0 0 0 0 0 0 0 0 0 0 0 0 0 0 0 0 0 0 0 0 0 0 0 0 0 0 0 0 0 0 0 0 0 0 0 0 0 0 0 0 0 0 0 0 0 0 0 0 0 0 0 0 0 0 0 0 0 0 0 0 0 0 0 0 0 0 0 0 0 0 0 0 0 0 0 0 0 0 0 0 0 0 0 0 0 0 0 0 0 0 0 0 0 0 0 0 0 0 0 0 0 0 0 0 0 0 0 0 0 0 0 0 0 0 0 0 0 0 0 0 0 0 0 0 0 0 0 0 0 0 0 0 0 0 0 0 0 0 0 0 0 0 0 0 0 0 0 0 0 0 0 0 0 0 0 0 0 0 0 0 0 0 0 0 0 0 0 0 0 0 0 0 0 0 0 0 0 0 0 0 0 0 0 0 0 0 0 0 0 0 0 0 0 0 0 0 0 0 0 0 0 0 0 0 0 0 0 0 0 0 0 0 0 0 0 0 0 0 0 0 0 0 0 0 0 0 0 0 0 0 0 0 0 0 0 0 0 0 0 0 0 0 0 0 0 0 0 0 0 0 0 0 0 0 0 0 0 0 0 0 0 0 0 0 0 0 0 0 0 0 0 0 0 0 0 0 0 0 0 0 0 0 0 0 0 0 0 0 0 0 0 0 0 0 0 0 0 0 0 0 0 0 0 0 0 0 0 0 0 0 0 0 0 0 0 0 0 0 0 0 0 0 0 0 0 0 0 0 0 0 0 0 0 0 0 0 0 0 0 0 0 0 0 0 0 0 0 0 0 0 0 0 0 0 0 0 0 0 0 0 0 0 0 0 0 0 0 0 0 0 0 0 0 0 0 0 0 0 0 0 0 0 0 0 0 0 0 0 0 0 0 0 0 0 0 0 0 0 0 0 0 0 0 0 0 0 0 0 0 0 0 0 0 0 0 0 0 0 0 0 0 0 0 0 0 0 0 0 0 0 0 0 0 0 0 0 0 0 0 0 0 0 0 0 0 0 0 0 0 0 0 0 0 0 0 0 0 0 0 0 0 0 0 0 0 0 0 0 0 0 0 0 0 0 0 0 0 0 0 0 0 0 0 0 0 0 0 0 0 0 0 0 0 0 0 0 0 0 0 0 0 0 0 0 0 0 0 0 0 0 0 0 0 0 0 0 0 0 0 0 0 0 0 0 0 0 0 0 0 0 0 0 0 0 0 0 0 0 0 0 0 0 0 0 0 0 0 0 0 0 0 0 0 0 0 0 0 0 0 0 0 0 0 0 0 0 0 0 0 0 0 0 0 0 0 0 0 0 0 0 0 0 0 0 0 0 0 0 0 0 0 0 0 0 0 0 0 0 0 0 0 0 0 0 0 0 0 0 0 0 0 0 0 0 0 0 0 0 0 0 0 0 0 0 0 0 0 0 0 0 0 0 0 0 0 0 0 0 0 0 0 0 0 0 0 0 0 0 0 0 0 0 0 0 0 0 0 0 0 0 0 0 0 0 0 0 0 0 0 0 0 0 0 0 0 0 0 0 0 0 0 0 0 0 0 0 0 0 0 0 0 0 0 0 0 0 0 0 0 0 0 0 0 0 0 0 0 0 0 0 0 0 0 0 0 0 0 0 0 0 0 0 0 0 0 0 0 0 0 0 0 0 0 0 0 0 0 0 0 0 0 0 0 0 0 0 0 0 0 0 0 0 0 0 0 0 0 0 0 0 0 0 0 0 0 0 0 0 0 0 0 0 0 0 0 0 0 0 0 0 0 0 0 0 0 0 0 0 0 0 0 0 0 0 0 0 0 0 0 0 0 0 0 0 0 0 0 0 0 0 0 0 0 0 0 0 0 0 0 0 0 0 0 0 0 0 0 0 0 0 0 0 0 0 0 0 0 0 0 0 0 0 0 0 0 0 0 0 0 0 0 0 0 0 0 0 0 0 0 0 0 0 0 0 0 0 0 0 0 0 0 0 0 0 0 0 0 0 0 0 0 0 0 0 0 0 0 0 0 0 0 0 0 0 0 0 0 0 0 0 0 0 0 0 0 0 0 0 0 0 0 0 0 0 0 0 0 0 0 0 0 0 0 0 0 0 0 0 0 0 0 0 0 0 0 0 0 0 0 0 0 0 0 0 0 0 0 0 0 0 0 0 0 0 0 0 0 0 0 0 0 0 0 0 0 0 0 0 0 0 0 0 0 0 0 0 0 0 0 0 0 0 0 0 0 0 0 0 0 0 0 0 0 0 0 0 0 0 0 0 0 0 0 0 0 0 0 0 0 0 0 0 0 0 0 0 0 0 0 0 0 0 0 0 0 0 0 0 0 0 0 0 0 0 0 0 0 0 0 0 0 0 0 0 0 0 0 0 0 0 0 0 0 0 0 0 0 0 0 0 0 0 0 0 0 0 0 0 0 0 0 0 0 0 0 0 0 0 0 0 0 0 0 0 0 0 0 0 0 0 0 0 0 0 0 0 0 0 0 0 0 0 0 0 0 0 0 0 0 0 0 0 0 0 0 0 0 0 0 0 0 0 0 0 0 0 0 0 0 0 0 0 0 0 0 0 0 0 0 0 0 0 0 0 0 0 0 0 0 0 0 0 0 0 0 0 0 0 0 0 0 0 0 0 0 0 0 0 0 0 0 0 0 0 0 0 0 0 0 0 0 0 0 0 0 0 0 0 0 0 0 0 0 0 0 0 0 0 0 0 0 0 0 0 0 0 0 0 0 0 0 0 0 0 0 0 0 0 0 0 0 0 0 0 0 0 0 0 0 0 0 0 0 0 0 0 0 0 0 0 0 0 0 0 0 0 0 0 0 0 0 0 0 0 0 0 0 0 0 0 0 0 0 0 0 0 0 0 0 0 0 0 0 0 0 0 0 0 0 0 0 0 0 0 0 0 0 0 0 0 0 0 0 0 0 0 0 0 0 0 0 0 0 0 0 0 0 0 0 0 0 0 0 0 0 0 0 0 0 0 0 0 0 0 0 0 0 0 0 0 0 0 0 0 0 0 0 0 0 0 0 0 0 0 0 0 0 0 0 0 0 0 0 0 0 0 0 0 0 0 0 0 0 0 0 0 0 0 0 0 0 0 0 0 0 0 0 0 0 0 0 0 0 0 0 0 0 0 0 0 0 0 0 0 0 0 0 0 0 0 0 0 0 0 0 0 0 0 0 0 0 0 0 0 0 0 0 0 0 0 0 0 0 0 0 0 0 0 0 0 0 0 0 0 0 0 0 0 0 0 0 0 0 0 0 0 0 0 0 0 0 0 0 0 0 0 0 0 0 0 0 0 0 0 0 0 0 0 0 0 0 0 0 0 0 0 0 0 0 0 0 0 0 0 0 0 0 0 0 0 0 0 0 0 0 0 0 0 0 0 0 0 0 0 0 0 0 0 0 0 0 0 0 0 0 0 0 0 0 0 0 0 0 0 0 0 0 0 0 0 0 0 0 0 0 0 0 0 0 0 0 0 0 0 0 0 0 0 0 0 0 0 0 0 0 0 0 0 0 0 0 0 0 0 0 0 0 0 0 0 0 0 0 0 0 0 0 0 0 0 0 0 0 0 0 0 0 0 0 0 0 0 0 0 0 0 0 0 0 0 0 0 0 0 0 0 0 0 0 0 0 0 0 0 0 0 0 0 0 0 0 0 0 0 0 0 0 0 0 0 0 0 0 0 0 0 0 0 0 0 0 0 0 0 0 0 0 0 0 0 0 0 0 0 0 0 0 0 0 0 0 0 0 0 0 0 0 0 0 0 0 0 0 0 0 0 0 0 0 0 0 0 0 0 0 0 0 0 0 0 0 0 0 0 0 0 0 0 0 0 0 0 0 0 0 0 0 0 0 0 0 0 0 0 0 0 0 0 0 0 0 0 0 0 0 0 0 0 0 0 0 0 0 0 0 0 0 0 0 0 0 0 0 0 0 0 0 0 0 0 0 0 0 0 0 0 0 0 0 0 0 0 0 0 0 0 0 0 0 0 0 0 0 0 0 0 0 0 0 0 0 0 0 0 0 0 0 0 0 0 0 0 0 0 0 0 0 0 0 0 0 0 0 0 0 0 0 0 0 0 0 0 0 0 0 0 0 0 0 0 0 0 0 0 0 0 0 0 0 0 0 0 0 0 0 0 0 0 0 0 0 0 0 0 0 0 0 0 0 0 0 0 0 0 0 0 0 0 0 0 0 0 0 0 0 0 0 0 0 0 0 0 0 0 0 0 0 0 0 0 0 0 0 0 0 0 0 0 0 0 0 0 0 0 0 0 0 0 0 0 0 0 0 0 0 0 0 0 0 0 0 0 0 0 0 0 0 0 0 0 0 0 0 0 0 0 0 0 0 0 0 0 0 0 0 0 0 0 0 0 0 0 0 0 0 0 0 0 0 0 0 0 0 0 0 0 0 0 0 0 0 0 0 0 0 0 0 0 0 0 0 0 0 0 0 0 0 0 0 0 0 0 0 0 0 0 0 0 0 0 0 0 0 0 0 0 0 0 0 0 0 0 0 0 0 0 0 0 0 0 0 0 0 0 0 0 0 0 0 0 0 0 0 0 0 0 0 0 0 0 0 0 0 0 0 0 0 0 0 0 0 0 0 0 0 0 0 0 0 0 0 0 0 0 0 0 0 0 0 0 0 0 0 0 0 0 0 0 0 0 0 0 0 0 0 0 0 0 0 0 0 0 0 0 0 0 0 0 0 0 0 0 0 0 0 0 0 0 0 0 0 0 0 0 0 0 0 0 0 0 0 0 0 0 0 0 0 0 0 0 0 0 0 0 0 0 0 0 0 0 0 0 0 0 0 0 0 0 0 0 0 0 0 0 0 0 0 0 0 0 0 0 0 0 0 0 0 0 0 0 0 0 0 0 0 0 0 0 0 0 0 0 0 0 0 0 0 0 0 0 0 0 0 0 0 0 0 0 0 0 0 0 0 0 0 0 0 0 0 0 0 0 0 0 0 0 0 0 0 0 0 0 0 0 0 0 0 0 0 0 0 0 0 0 0 0 0 0 0 0 0 0 0 0 0 0 0 0 0 0 0 0 0 0 0 0 0 0 0 0 0 0 0 0 0 0 0 0 0 0 0 0 0 0 0 0 0 0 0 0 0 0 0 0 0 0 0 0 0 0 0 0 0 0 0 0 0 0 0 0 0 0 0 0 0 0 0 0 0 0 0 0 0 0 0 0 0 0 0 0 0 0 0 0 0 0 0 0 0 0 0 0 0 0 0 0 0 0 0 0 0 0 0 0 0 0 0 0 0 0 0 0 0 0 0 0 0 0 0 0 0 0 0 0 0 0 0 0 0 0 0 0 0 0 0 0 0 0 0 0 0 0 0 0 0 0 0 0 0 0 0 0 0 0 0 0 0 0 0 0 0 0 0 0 0 0 0 0 0 0 0 0 0 0 0 0 0 0 0 0 0 0 0 0 0 0 0 0 0 0 0 0 0 0 0 0 0 0 0 0 0 0 0 0 0 0 0 0 0 0 0 0 0 0 0 0 0 0 0 0 0 0 0 0 0 0 0 0 0 0 0 0 0 0 0 0 0 0 0 0 0 0 0 0 0 0 0 0 0 0 0 0 0 0 0 0 0 0 0 0 0 0 0 0 0 0 0 0 0 0 0 0 0 0 0 0 0 0 0 0 0 0 0 0 0 0 0 0 0 0 0 0 0 0 0 0 0 0 0 0 0 0 0 0 0 0 0 0 0 0 0 0 0 0 0 0 0 0 0 0 0 0 0 0 0 0 0 0 0 0 0 0 0 0 0 0 0 0 0 0 0 0 0 0 0 0 0 0 0 0 0 0 0 0 0 0 0 0 0 0 0 0 0 0 0 0 0 0 0 0 0 0 0 0 0 0 0 0 0 0 0 0 0 0 0 0 0 0 0 0 0 0 0 0 0 0 0 0 0 0 0 0 0 0 0 0 0 0 0 0 0 0 0 0 0 0 0 0 0 0 0 0 0 0 0 0 0 0 0 0 0 0 0 0 0 0 0 0 0 0 0 0 0 0 0 0 0 0 0 0 0 0 0 0 0 0 0 0 0 0 0 0 0 0 0 0 0 0 0 0 0 0 0 0 0 0 0 0 0 0 0 0 0 0 0 0 0 0 0 0 0 0 0 0 0 0 0 0 0 0 0 0 0 0 0 0 0 0 0 0 0 0 0 0 0 0 0 0 0 0 0 0 0 0 0 0 0 0 0 0 0 0 0 0 0 0 0 0 0 0 0 0 0 0 0 0 0 0 0 0 0 0 0 0 0 0 0 0 0 0 0 0 0 0 0 0 0 0 0 0 0 0 0 0 0 0 0 0 0 0 0 0 0 0 0 0 0 0 0 0 0 0 0 0 0 0 0 0 0 0 0 0 0 0 0 0 0 0 0 0 0 0 0 0 0 0 0 0 0 0 0 0 0 0 0 0 0 0 0 0 0 0 0 0 0 0 0 0 0 0 0 0 0 0 0 0 0 0 0 0 0 0 0 0 0 0 0 0 0 0 0 0 0 0 0 0 0 0 0 0 0 0 0 0 0 0 0 0 0 0 0 0 0 0 0 0 0 0 0 0 0 0 0 0 0 0 0 0 0 0 0 0 0 0 0 0 0 0 0 0 0 0 0 0 0 0 0 0 0 0 0 0 0 0 0 0 0 0 0 0 0 0 0 0 0 0 0 0 0 0 0 0 0 0 0 0 0 0 0 0 0 0 0 0 0 0 0 0 0 0 0 0 0 0 0 0 0 0 0 0 0 0 0 0 0 0 0 0 0 0 0 0 0 0 0 0 0 0 0 0 0 0 0 0 0 0 0 0 0 0 0 0 0 0 0 0 0 0 0 0 0 0 0 0 0 0 0 0 0 0 0 0 0 0 0 0 0 0 0 0 0 0 0 0 0 0 0 0 0 0 0 0 0 0 0 0 0 0 0 0 0 0 0 0 0 0 0 0 0 0 0 0 0 0 0 0 0 0 0 0 0 0 0 0 0 0 0 0 0 0 0 0 0 0 0 0 0 0 0 0 0 0 0 0 0 0 0 0 0 0 0 0 0 0 0 0 0 0 0 0 0 0 0 0 0 0 0 0 0 0 0 0 0 0 0 0 0 0 0 0 0 0 0 0 0 0 0 0 0 0 0 0 0 0 0 0 0 0 0 0 0 0 0 0 0 
SCALARS _Marker double 1
LOOKUP_TABLE default