# vtk DataFile Version 3.0
d-2__ created by libgimli-v1.1.0
ASCII
DATASET UNSTRUCTURED_GRID
POINTS 2568 double
-1	0	0
-1	-12.6	0
32.5	-12.6	0
32.5	0	0
-127	0	0
-127	-138.6	0
158.5	0	0
158.5	-138.6	0
0	0	0
0.25	0	0
0.5	0	0
0.75	0	0
1	0	0
1.25	0	0
1.5	0	0
1.75	0	0
2	0	0
2.25	0	0
2.5	0	0
2.75	0	0
3	0	0
3.25	0	0
3.5	0	0
3.75	0	0
4	0	0
4.25	0	0
4.5	0	0
4.75	0	0
5	0	0
5.25	0	0
5.5	0	0
5.75	0	0
6	0	0
6.25	0	0
6.5	0	0
6.75	0	0
7	0	0
7.25	0	0
7.5	0	0
7.75	0	0
8	0	0
8.25	0	0
8.5	0	0
8.75	0	0
9	0	0
9.25	0	0
9.5	0	0
9.75	0	0
10	0	0
10.25	0	0
10.5	0	0
10.75	0	0
11	0	0
11.25	0	0
11.5	0	0
11.75	0	0
12	0	0
12.25	0	0
12.5	0	0
12.75	0	0
13	0	0
13.25	0	0
13.5	0	0
13.75	0	0
14	0	0
14.25	0	0
14.5	0	0
14.75	0	0
15	0	0
15.25	0	0
15.5	0	0
15.75	0	0
16	0	0
16.25	0	0
16.5	0	0
16.75	0	0
17	0	0
17.25	0	0
17.5	0	0
17.75	0	0
18	0	0
18.25	0	0
18.5	0	0
18.75	0	0
19	0	0
19.25	0	0
19.5	0	0
19.75	0	0
20	0	0
20.25	0	0
20.5	0	0
20.75	0	0
21	0	0
21.25	0	0
21.5	0	0
21.75	0	0
22	0	0
22.25	0	0
22.5	0	0
22.75	0	0
23	0	0
23.25	0	0
23.5	0	0
23.75	0	0
24	0	0
24.25	0	0
24.5	0	0
24.75	0	0
25	0	0
25.25	0	0
25.5	0	0
25.75	0	0
26	0	0
26.25	0	0
26.5	0	0
26.75	0	0
27	0	0
27.25	0	0
27.5	0	0
27.75	0	0
28	0	0
28.25	0	0
28.5	0	0
28.75	0	0
29	0	0
29.25	0	0
29.5	0	0
29.75	0	0
30	0	0
30.25	0	0
30.5	0	0
30.75	0	0
31	0	0
31.25	0	0
31.5	0	0
15.122708481244	-0.193620038745	0
3.619156095452	-0.800599314657	0
2.625577516194	-0.346770599322	0
5.699780065382	-0.324747799653	0
8.82173151259	-0.349253271447	0
12.686337592177	-0.258437422252	0
23.567455674596	-0.325197491724	0
26.327430876245	-0.35930637997	0
29.092446172194	-0.305987136665	0
17.881276545163	-0.206424156589	0
14.386963504964	-0.201738469428	0
13.671302359608	-0.710707966059	0
18.336839281097	-0.861122419318	0
17.650384190064	-0.227839036584	0
1.374000926997	-0.300418771701	0
4.337474161742	-0.544420985055	0
-1	-8	0
2.347047126858	-0.185539804102	0
4.076038737616	-0.331410355179	0
3.362318141622	-0.306501255187	0
2.90152418742	-0.185685383897	0
5.335512032876	-0.269401530321	0
7.11236984822	-0.391746146843	0
6.373371846535	-0.274163514827	0
5.924584257371	-0.172748359932	0
8.518285578354	-0.242327591839	0
11.345829942703	-0.314788260019	0
10.095049354068	-0.315754204277	0
9.405755833308	-0.325979504745	0
9.117836368049	-0.253904480787	0
21.358341816502	-0.326561417551	0
20.423452336785	-0.313445603959	0
19.881635677668	-0.346204516721	0
19.564465692234	-0.270867872644	0
19.118057075065	-0.225686869553	0
24.832880292394	-0.290571430318	0
24.149237782749	-0.319013340846	0
23.862588150518	-0.245417872715	0
23.332392704446	-0.202507275941	0
27.604422363523	-0.298869962794	0
26.914424714815	-0.337869958787	0
26.622424322919	-0.264588309935	0
26.080401003391	-0.227842452866	0
32.5	-4	0
30.180216671806	-0.343473673313	0
29.623391954444	-0.322069028408	0
29.36294710412	-0.230601226356	0
28.84859809239	-0.201276387394	0
16.392319441256	-0.29915360323	0
19.290725118801	-0.49926248604	0
16.126746690205	-0.221608117926	0
18.108153655084	-0.208141099276	0
13.102881121377	-0.411296235356	0
11.882046000841	-0.812345557852	0
15.544586046819	-0.246453491997	0
12.900449535554	-0.462768612232	0
19.750801355637	-1.382230148011	0
13.667851890428	-0.185102765244	0
1.89953779852	-0.269343012166	0
1.633800503821	-0.203067612233	0
1.114902662369	-0.201591505098	0
3.019224421113	-0.401469974918	0
2.142562771237	-0.172460438312	0
4.67745607622	-0.378433532554	0
4.368408037607	-0.250833874131	0
3.835807353334	-0.199536243303	0
2.896561357202	-0.792481120253	0
3.106904732949	-0.178783649348	0
5.113979852892	-0.173834924157	0
7.881917737402	-0.30462800112	0
7.400656881666	-0.195280611572	0
6.83842404292	-0.188923754932	0
5.948697127931	-0.745234910621	0
6.120159502895	-0.164221934939	0
8.328777073389	-0.153008859619	0
12.643108055516	-0.590179775368	0
11.893544445085	-0.335972898148	0
11.619450354736	-0.231443672836	0
11.104427225455	-0.188863495516	0
10.672815698565	-0.318467932684	0
10.380281579003	-0.241092027437	0
9.849824537955	-0.19917205686	0
9.111697192308	-0.594170467817	0
22.399299936458	-0.310870122736	0
21.871398197179	-0.313006985103	0
21.618913855927	-0.233585823579	0
21.059546193318	-0.24845941382	0
20.66289882074	-0.189089155251	0
20.143897114391	-0.233773711865	0
13.411260455969	-0.342646276848	0
18.888143078348	-0.195773419804	0
25.344389320279	-0.31693710653	0
25.099388239946	-0.214879887129	0
24.59640839418	-0.191760546865	0
23.842766599446	-0.577371105011	0
23.109690227386	-0.220340974338	0
28.129259193923	-0.314252106503	0
27.868836823455	-0.217301839861	0
27.357530053515	-0.198815038154	0
26.621963281699	-0.624626679172	0
25.842927934822	-0.248287716678	0
30.981104050195	-0.5526690913	0
30.660802173874	-0.161931182737	0
30.473599299501	-0.238575611274	0
29.890297721653	-0.2433406165	0
29.348490380579	-0.521100538161	0
28.618403654115	-0.227691192115	0
18.378272976509	-0.514977451159	0
22.116430707502	-1.168082199262	0
16.704049384397	-0.435508179396	0
18.663262297679	-0.667179415955	0
19.34462271879	-0.199329831305	0
21.474349239871	-1.300537541301	0
10.772487906066	-0.787092734739	0
19.932263871771	-0.826489183604	0
18.101369157139	-0.618560521812	0
2.361419414365	-0.794513604096	0
1.644492760828	-0.441295523531	0
0.883560935405	-0.231136840652	0
3.633270844505	-0.195395238442	0
4.920911116561	-0.192028847294	0
5.385509485898	-0.709154879541	0
7.434272221796	-0.695675918868	0
7.612175045312	-0.180627982114	0
6.631875629497	-0.169178192832	0
6.738406513564	-0.710129601907	0
6.052412255932	-0.372556729023	0
8.139317726831	-0.163309591658	0
8.472303742627	-0.591754876635	0
14.125469935998	-0.279652141152	0
20.457987075478	-0.803203365193	0
12.412455385193	-0.275030800337	0
18.343198956448	-0.236734208617	0
10.909079077441	-0.189427130481	0
15.859319180798	-0.326402762318	0
10.385948631267	-0.570640149046	0
9.651670336652	-0.200847798694	0
9.767148641111	-0.837383892781	0
22.645812614293	-0.197864648876	0
22.129824335287	-0.229914148082	0
21.615176662754	-0.521922347305	0
20.85240828135	-0.178025243856	0
20.167450719332	-0.505159975143	0
18.636898038907	-0.29588182328	0
17.415572543912	-0.230682214253	0
25.067351422649	-0.463427753535	0
24.398993403151	-0.196312410538	0
24.500253217917	-0.848575886134	0
23.443705587002	-0.773171720633	0
22.865620821195	-0.218348593093	0
27.863714790534	-0.471681393437	0
27.159348252167	-0.205297590358	0
27.310526223539	-0.892799599022	0
26.239117668995	-0.863279739365	0
25.613904645132	-0.216025146631	0
32.5	-8	0
30.706626759758	-0.34945139905	0
31.144859415042	-0.241304201582	0
29.896797054636	-0.547765129844	0
29.054768525933	-0.708603081552	0
28.387848605749	-0.205892081491	0
13.816492716597	-0.40394453634	0
18.338018094476	-1.366069799339	0
11.612143285947	-0.506264798476	0
15.281953315711	-0.388999642276	0
13.871646321742	-0.17394291424	0
14.973628496842	-0.413945504664	0
9.961661342999	-1.070235523667	0
2.214249105773	-0.404278959534	0
1.90687689783	-0.651895683444	0
-0.025989358528	-0.505888089324	0
0.625738545692	-0.228405936136	0
4.016904362632	-0.85330676142	0
3.713721571226	-0.470767763626	0
3.21002197083	-0.595267231049	0
5.061980176718	-0.407989246181	0
4.538525595924	-0.906226152762	0
7.527150943175	-0.401430797998	0
6.696914540879	-0.380672503721	0
6.24720081955	-0.551834560177	0
8.780507935475	-0.76092407121	0
8.234901607028	-0.35771789179	0
16.84024277193	-0.203626765466	0
12.158949464947	-0.235415698299	0
17.987794057246	-0.401472255242	0
17.112673188265	-0.38804641709	0
11.020900486567	-0.439266778492	0
15.75	-12.6	0
10.051363365948	-0.719159376333	0
9.753796445798	-0.478866225926	0
9.457257345083	-0.753685223931	0
22.126320781198	-0.518791771445	0
21.360297691811	-0.734200004244	0
13.137744715761	-0.195204172124	0
19.011498044983	-0.834202892304	0
11.325917093147	-0.8366783502	0
24.81263825963	-0.684738154192	0
24.496861814148	-0.467031445896	0
24.183995039967	-0.73159476451	0
23.229584388362	-0.458653998547	0
27.623928481276	-0.710902131402	0
27.277617447467	-0.489224417775	0
26.977877660759	-0.778408201088	0
25.97986022697	-0.52841375324	0
30.543724897762	-0.572259098027	0
31.419893917861	-0.21515623343	0
30.873880294509	-0.217692518774	0
29.612773839625	-0.699757135752	0
28.783812899585	-0.467926883932	0
19.443730892406	-0.923508713428	0
18.681414719126	-1.030298760551	0
16.138065841822	-0.472802517973	0
16.40158555625	-0.755912194683	0
14.900855313538	-0.178071167744	0
9.511202608092	-2.409592151646	0
15.178150912169	-0.713100616689	0
0.103762538371	-0.253013629949	0
-1	-4	0
0.374713194419	-0.2320817565	0
3.121043865625	-1.19390520438	0
3.445510026908	-0.608065324465	0
4.937022539393	-0.72440615077	0
7.720012958977	-0.638314519759	0
6.187556918815	-1.163101769744	0
6.486169356976	-0.547104724003	0
13.83833027638	-1.238601004239	0
17.789350393153	-0.390447709085	0
12.929165084344	-0.221336108042	0
15.339606453815	-0.166204802571	0
21.856785525528	-0.665128848631	0
22.425271500368	-0.756024569567	0
21.109577821412	-0.527879642114	0
15.547854961707	-0.580173571081	0
22.973070909861	-0.429963408608	0
25.630635194756	-0.512020961038	0
28.44374413871	-0.484576386004	0
15.340686541449	-1.798939961613	0
14.560824197475	-1.288624907876	0
1.067401015567	-0.470108640981	0
0.74465037922	-0.477510956869	0
0.881927559616	-0.824483846531	0
1.406172533733	-0.772361039307	0
3.313957665883	-0.865581185485	0
5.020930333117	-1.216887471447	0
7.687570986573	-1.096228039606	0
8.067689101328	-0.689631465772	0
6.374268815671	-0.815590421241	0
14.711901739669	-0.713147061637	0
20.792152536902	-0.448319093295	0
9.414105671385	-1.618020221922	0
17.566481510048	-0.529340016102	0
22.709615967528	-0.451655444534	0
25.243766894324	-0.80097755811	0
28.100199615755	-0.812038297775	0
-0.5	0	0
3.58437433794	-1.199387918367	0
6.63761880162	-1.171963571361	0
19.636637251236	-2.138929600981	0
13.157975569138	-0.830425793913	0
15.51532665618	-1.043792149387	0
20.707133954177	-1.403573314137	0
10.030576753886	-1.587265312651	0
16.850299990829	-0.757941865332	0
10.894920134778	-1.514321070539	0
[...]
CELL_DATA 4804
SCALARS _Attribute double 1
LOOKUP_TABLE default
14.897356447782 14.897356447782 14.897356447782 14.897356447782 10.58353267973 10.58353267973 10.58353267973 10.58353267973 0.029853521829153 0.029853521829153 0.029853521829153 0.029853521829153 9.671769252468 9.671769252468 9.671769252468 9.671769252468 6.5423833702286 6.5423833702286 6.5423833702286 6.5423833702286 6.2348699252093 6.2348699252093 6.2348699252093 6.2348699252093 4.0380597055805 4.0380597055805 4.0380597055805 4.0380597055805 5.5252966414538 5.5252966414538 5.5252966414538 5.5252966414538 5.181797424388 5.181797424388 5.181797424388 5.181797424388 4.6293671136104 4.6293671136104 4.6293671136104 4.6293671136104 8.2662845494513 8.2662845494513 8.2662845494513 8.2662845494513 6.9442652458595 6.9442652458595 6.9442652458595 6.9442652458595 6.3603706078943 6.3603706078943 6.3603706078943 6.3603706078943 5.8786232106753 5.8786232106753 5.8786232106753 5.8786232106753 4.6649935161263 4.6649935161263 4.6649935161263 4.6649935161263 5.0497390391211 5.0497390391211 5.0497390391211 5.0497390391211 5.0241774641024 5.0241774641024 5.0241774641024 5.0241774641024 5.9839498711984 5.9839498711984 5.9839498711984 5.9839498711984 5.1477396242699 5.1477396242699 5.1477396242699 5.1477396242699 2.2481496999149 2.2481496999149 2.2481496999149 2.2481496999149 1.3546367670551 1.3546367670551 1.3546367670551 1.3546367670551 4.5839157120211 4.5839157120211 4.5839157120211 4.5839157120211 0.26597369015994 0.26597369015994 0.26597369015994 0.26597369015994 4.1078685480513 4.1078685480513 4.1078685480513 4.1078685480513 4.1898426114031 4.1898426114031 4.1898426114031 4.1898426114031 63.844095510567 63.844095510567 63.844095510567 63.844095510567 4.9767310944494 4.9767310944494 4.9767310944494 4.9767310944494 4.4071794601862 4.4071794601862 4.4071794601862 4.4071794601862 5.7997634389006 5.7997634389006 5.7997634389006 5.7997634389006 5.7271121862465 5.7271121862465 5.7271121862465 5.7271121862465 0.22497764666883 0.22497764666883 0.22497764666883 0.22497764666883 6.9575061363585 6.9575061363585 6.9575061363585 6.9575061363585 134.18334942415 134.18334942415 134.18334942415 134.18334942415 6.1580867670996 6.1580867670996 6.1580867670996 6.1580867670996 5.333746780751 5.333746780751 5.333746780751 5.333746780751 1.1381811208388 1.1381811208388 1.1381811208388 1.1381811208388 4.1340645989787 4.1340645989787 4.1340645989787 4.1340645989787 5.4961912836601 5.4961912836601 5.4961912836601 5.4961912836601 0.77274653397012 0.77274653397012 0.77274653397012 0.77274653397012 5.2844539635763 5.2844539635763 5.2844539635763 5.2844539635763 5.1621716572028 5.1621716572028 5.1621716572028 5.1621716572028 8.1088504201157 8.1088504201157 8.1088504201157 8.1088504201157 4.4554531226766 4.4554531226766 4.4554531226766 4.4554531226766 7.8213937052578 7.8213937052578 7.8213937052578 7.8213937052578 7.2773672454634 7.2773672454634 7.2773672454634 7.2773672454634 5.7231080971312 5.7231080971312 5.7231080971312 5.7231080971312 6.1134378524233 6.1134378524233 6.1134378524233 6.1134378524233 3.9930263628859 3.9930263628859 3.9930263628859 3.9930263628859 5.0744507131867 5.0744507131867 5.0744507131867 5.0744507131867 7.4849144415529 7.4849144415529 7.4849144415529 7.4849144415529 4.4752256740552 4.4752256740552 4.4752256740552 4.4752256740552 3.6875842456596 3.6875842456596 3.6875842456596 3.6875842456596 7.1215650797607 7.1215650797607 7.1215650797607 7.1215650797607 5.2337750637539 5.2337750637539 5.2337750637539 5.2337750637539 4.9507119992749 4.9507119992749 4.9507119992749 4.9507119992749 4.4632545498181 4.4632545498181 4.4632545498181 4.4632545498181 5.1023899394714 5.1023899394714 5.1023899394714 5.1023899394714 4.9121185706858 4.9121185706858 4.9121185706858 4.9121185706858 5.5931383686819 5.5931383686819 5.5931383686819 5.5931383686819 1.9217113582218 1.9217113582218 1.9217113582218 1.9217113582218 5.407662765751 5.407662765751 5.407662765751 5.407662765751 2.2933540697042 2.2933540697042 2.2933540697042 2.2933540697042 4.2805419910644 4.2805419910644 4.2805419910644 4.2805419910644 182622.52098371 182622.52098371 182622.52098371 182622.52098371 5.946289697989 5.946289697989 5.946289697989 5.946289697989 5.5091879545413 5.5091879545413 5.5091879545413 5.5091879545413 7.6805341016658 7.6805341016658 7.6805341016658 7.6805341016658 4.5610001965288 4.5610001965288 4.5610001965288 4.5610001965288 4.9531663099566 4.9531663099566 4.9531663099566 4.9531663099566 5.9404960708695 5.9404960708695 5.9404960708695 5.9404960708695 4.6867623849414 4.6867623849414 4.6867623849414 4.6867623849414 6.9036679126847 6.9036679126847 6.9036679126847 6.9036679126847 4.9903852963798 4.9903852963798 4.9903852963798 4.9903852963798 6.8003162829308 6.8003162829308 6.8003162829308 6.8003162829308 3.8153096859806 3.8153096859806 3.8153096859806 3.8153096859806 4.9506586058481 4.9506586058481 4.9506586058481 4.9506586058481 6.1666759283772 6.1666759283772 6.1666759283772 6.1666759283772 5.6656192968488 5.6656192968488 5.6656192968488 5.6656192968488 5.4489703654745 5.4489703654745 5.4489703654745 5.4489703654745 6.9666560100731 6.9666560100731 6.9666560100731 6.9666560100731 5.6579209269572 5.6579209269572 5.6579209269572 5.6579209269572 6.5023898371061 6.5023898371061 6.5023898371061 6.5023898371061 6.2732643273833 6.2732643273833 6.2732643273833 6.2732643273833 3.7817624991797 3.7817624991797 3.7817624991797 3.7817624991797 4.3624011728471 4.3624011728471 4.3624011728471 4.3624011728471 7.1602092154597 7.1602092154597 7.1602092154597 7.1602092154597 5.3317658180206 5.3317658180206 5.3317658180206 5.3317658180206 7.9278925260251 7.9278925260251 7.9278925260251 7.9278925260251 6.9831785988016 6.9831785988016 6.9831785988016 6.9831785988016 4.0627483068971 4.0627483068971 4.0627483068971 4.0627483068971 5.3916379063204 5.3916379063204 5.3916379063204 5.3916379063204 7.024886694025 7.024886694025 7.024886694025 7.024886694025 6.7493283258202 6.7493283258202 6.7493283258202 6.7493283258202 4.802848391877 4.802848391877 4.802848391877 4.802848391877 4.3964670344587 4.3964670344587 4.3964670344587 4.3964670344587 6.4263244370518 6.4263244370518 6.4263244370518 6.4263244370518 6.1201462953927 6.1201462953927 6.1201462953927 6.1201462953927 3.8622400443749 3.8622400443749 3.8622400443749 3.8622400443749 4.109270895078 4.109270895078 4.109270895078 4.109270895078 5.6175223437953 5.6175223437953 5.6175223437953 5.6175223437953 5.6470224472865 5.6470224472865 5.6470224472865 5.6470224472865 5.4262444990261 5.4262444990261 5.4262444990261 5.4262444990261 7.2144974895815 7.2144974895815 7.2144974895815 7.2144974895815 4.4547776277642 4.4547776277642 4.4547776277642 4.4547776277642 7.0144873982961 7.0144873982961 7.0144873982961 7.0144873982961 4.6649337556704 4.6649337556704 4.6649337556704 4.6649337556704 7.1517179607352 7.1517179607352 7.1517179607352 7.1517179607352 5.8670205782321 5.8670205782321 5.8670205782321 5.8670205782321 5.9793598634817 5.9793598634817 5.9793598634817 5.9793598634817 4.4875482008311 4.4875482008311 4.4875482008311 4.4875482008311 4.3422725819684 4.3422725819684 4.3422725819684 4.3422725819684 2.5050418337771 2.5050418337771 2.5050418337771 2.5050418337771 6.3282231572794 6.3282231572794 6.3282231572794 6.3282231572794 5.7902889575688 5.7902889575688 5.7902889575688 5.7902889575688 5.5084837153214 5.5084837153214 5.5084837153214 5.5084837153214 6.6297190367537 6.6297190367537 6.6297190367537 6.6297190367537 6.8222632361531 6.8222632361531 6.8222632361531 6.8222632361531 4.1465789214169 4.1465789214169 4.1465789214169 4.1465789214169 9.8213984020928 9.8213984020928 9.8213984020928 9.8213984020928 6.6961513084127 6.6961513084127 6.6961513084127 6.6961513084127 1.7042941745351 1.7042941745351 1.7042941745351 1.7042941745351 1.4992094112868 1.4992094112868 1.4992094112868 1.4992094112868 2.8814704089518 2.8814704089518 2.8814704089518 2.8814704089518 3.9600543189786 3.9600543189786 3.9600543189786 3.9600543189786 4.547610952876 4.547610952876 4.547610952876 4.547610952876 8.6863076221018 8.6863076221018 8.6863076221018 8.6863076221018 6.710012233531 6.710012233531 6.710012233531 6.710012233531 7.0330419963644 7.0330419963644 7.0330419963644 7.0330419963644 4.5277903738117 4.5277903738117 4.5277903738117 4.5277903738117 6.0877860226849 6.0877860226849 6.0877860226849 6.0877860226849 14.897356447782 14.897356447782 14.897356447782 14.897356447782 5.5464265635634 5.5464265635634 5.5464265635634 5.5464265635634 5.1675217523891 5.1675217523891 5.1675217523891 5.1675217523891 4.8937321124701 4.8937321124701 4.8937321124701 4.8937321124701 5.6261486276319 5.6261486276319 5.6261486276319 5.6261486276319 16.098546362916 16.098546362916 16.098546362916 16.098546362916 9.978748326262 9.978748326262 9.978748326262 9.978748326262 22.606719241169 22.606719241169 22.606719241169 22.606719241169 508.56483130635 508.56483130635 508.56483130635 508.56483130635 5.3936372628689 5.3936372628689 5.3936372628689 5.3936372628689 3.8766001046546 3.8766001046546 3.8766001046546 3.8766001046546 3.3646776626584 3.3646776626584 3.3646776626584 3.3646776626584 15.373178404168 15.373178404168 15.373178404168 15.373178404168 26.603395388715 26.603395388715 26.603395388715 26.603395388715 10.709955122171 10.709955122171 10.709955122171 10.709955122171 4.4502624453468 4.4502624453468 4.4502624453468 4.4502624453468 1.4975218816714 1.4975218816714 1.4975218816714 1.4975218816714 4.7148756500443 4.7148756500443 4.7148756500443 4.7148756500443 6.2391335648323 6.2391335648323 6.2391335648323 6.2391335648323 7.8980297292914 7.8980297292914 7.8980297292914 7.8980297292914 5.7560087432074 5.7560087432074 5.7560087432074 5.7560087432074 3.7728008179949 3.7728008179949 3.7728008179949 3.7728008179949 20.792471783744 20.792471783744 20.792471783744 20.792471783744 5.4017043676827 5.4017043676827 5.4017043676827 5.4017043676827 254.79203604078 254.79203604078 254.79203604078 254.79203604078 6.1210490212733 6.1210490212733 6.1210490212733 6.1210490212733 6.8274860175427 6.8274860175427 6.8274860175427 6.8274860175427 0.10934603522327 0.10934603522327 0.10934603522327 0.10934603522327 5.8486350481634 5.8486350481634 5.8486350481634 5.8486350481634 5037.6818627759 5037.6818627759 5037.6818627759 5037.6818627759 5.1523213363993 5.1523213363993 5.1523213363993 5.1523213363993 11.035306385117 11.035306385117 11.035306385117 11.035306385117 5.5225070340974 5.5225070340974 5.5225070340974 5.5225070340974 5.2385208296031 5.2385208296031 5.2385208296031 5.2385208296031 14.559145492131 14.559145492131 14.559145492131 14.559145492131 9.6131658273434 9.6131658273434 9.6131658273434 9.6131658273434 1001.8503808805 1001.8503808805 1001.8503808805 1001.8503808805 44.672103039601 44.672103039601 44.672103039601 44.672103039601 13.761498910358 13.761498910358 13.761498910358 13.761498910358 234.314380604 234.314380604 234.314380604 234.314380604 3.738836063525 3.738836063525 3.738836063525 3.738836063525 4.9108056375701 4.9108056375701 4.9108056375701 4.9108056375701 3.7749876298789 3.7749876298789 3.7749876298789 3.7749876298789 11.702892250675 11.702892250675 11.702892250675 11.702892250675 6.987476179527 6.987476179527 6.987476179527 6.987476179527 8.8650498096037 8.8650498096037 8.8650498096037 8.8650498096037 9.3109885945219 9.3109885945219 9.3109885945219 9.3109885945219 4.9067933249372 4.9067933249372 4.9067933249372 4.9067933249372 1.2577542481439 1.2577542481439 1.2577542481439 1.2577542481439 19.144381270918 19.144381270918 19.144381270918 19.144381270918 0.80439299928723 0.80439299928723 0.80439299928723 0.80439299928723 0.68961934157459 0.68961934157459 0.68961934157459 0.68961934157459 0.93430353788474 0.93430353788474 0.93430353788474 0.93430353788474 12.70699784574 12.70699784574 12.70699784574 12.70699784574 14.3305093385 14.3305093385 14.3305093385 14.3305093385 54.752389389136 54.752389389136 54.752389389136 54.752389389136 53.574138392961 53.574138392961 53.574138392961 53.574138392961 51.146884895721 51.146884895721 51.146884895721 51.146884895721 5.7413272081645 5.7413272081645 5.7413272081645 5.7413272081645 5.2138064747228 5.2138064747228 5.2138064747228 5.2138064747228 19.923919226959 19.923919226959 19.923919226959 19.923919226959 11.340619914018 11.340619914018 11.340619914018 11.340619914018 0.45811835670673 0.45811835670673 0.45811835670673 0.45811835670673 11.535623782869 11.535623782869 11.535623782869 11.535623782869 1.9369896981575 1.9369896981575 1.9369896981575 1.9369896981575 21.6194253944 21.6194253944 21.6194253944 21.6194253944 3.8712253859578 3.8712253859578 3.8712253859578 3.8712253859578 2164.9166497582 2164.9166497582 2164.9166497582 2164.9166497582 12.450512787859 12.450512787859 12.450512787859 12.450512787859 4.2580240427767 4.2580240427767 4.2580240427767 4.2580240427767 5.3572939427604 5.3572939427604 5.3572939427604 5.3572939427604 1.7104468034041 1.7104468034041 1.7104468034041 1.7104468034041 244.50152777515 244.50152777515 244.50152777515 244.50152777515 4.3435141448786 4.3435141448786 4.3435141448786 4.3435141448786 8.7443937549996 8.7443937549996 8.7443937549996 8.7443937549996 0.007191797221315 0.007191797221315 0.007191797221315 0.007191797221315 3.3822846450988 3.3822846450988 3.3822846450988 3.3822846450988 371.04630263681 371.04630263681 371.04630263681 371.04630263681 500.57171630766 500.57171630766 500.57171630766 500.57171630766 3.4996602975537 3.4996602975537 3.4996602975537 3.4996602975537 0.044250440759064 0.044250440759064 0.044250440759064 0.044250440759064 6.945747647158 6.945747647158 6.945747647158 6.945747647158 5.9852540658394 5.9852540658394 5.9852540658394 5.9852540658394 30.892459938563 30.892459938563 30.892459938563 30.892459938563 6.0618765039745 6.0618765039745 6.0618765039745 6.0618765039745 0.032104606774989 0.032104606774989 0.032104606774989 0.032104606774989 0.086225426381825 0.086225426381825 0.086225426381825 0.086225426381825 4.8017079153079 4.8017079153079 4.8017079153079 4.8017079153079 6.5325357971389 6.5325357971389 6.5325357971389 6.5325357971389 3615.3001705174 3615.3001705174 3615.3001705174 3615.3001705174 3.4792656762193 3.4792656762193 3.4792656762193 3.4792656762193 29.445572445972 29.445572445972 29.445572445972 29.445572445972 0.13342939944276 0.13342939944276 0.13342939944276 0.13342939944276 0.99128701862425 0.99128701862425 0.99128701862425 0.99128701862425 2.5700019311383 2.5700019311383 2.5700019311383 2.5700019311383 5.4119681338163 5.4119681338163 5.4119681338163 5.4119681338163 80.144422596997 80.144422596997 80.144422596997 80.144422596997 5.3836398117264 5.3836398117264 5.3836398117264 5.3836398117264 11.861575450901 11.861575450901 11.861575450901 11.861575450901 3.5895716335505 3.5895716335505 3.5895716335505 3.5895716335505 34.572364340287 34.572364340287 34.572364340287 34.572364340287 13.643734633175 13.643734633175 13.643734633175 13.643734633175 5.3857124912711 5.3857124912711 5.3857124912711 5.3857124912711 5.6261793707737 5.6261793707737 5.6261793707737 5.6261793707737 7.7774739290235 7.7774739290235 7.7774739290235 7.7774739290235 5.7575695001582 5.7575695001582 5.7575695001582 5.7575695001582 5.8108202947838 5.8108202947838 5.8108202947838 5.8108202947838 11.661382853113 11.661382853113 11.661382853113 11.661382853113 5.1524179537534 5.1524179537534 5.1524179537534 5.1524179537534 205.50678654463 205.50678654463 205.50678654463 205.50678654463 12.671792780465 12.671792780465 12.671792780465 12.671792780465 6.5373781375297 6.5373781375297 6.5373781375297 6.5373781375297 55.187619113027 55.187619113027 55.187619113027 55.187619113027 5.2110716984638 5.2110716984638 5.2110716984638 5.2110716984638 5.1357921288254 5.1357921288254 5.1357921288254 5.1357921288254 176.93318504263 176.93318504263 176.93318504263 176.93318504263 5.8745869416336 5.8745869416336 5.8745869416336 5.8745869416336 11.10667279549 11.10667279549 11.10667279549 11.10667279549 4.4779457961197 4.4779457961197 4.4779457961197 4.4779457961197 5.2738380037638 5.2738380037638 5.2738380037638 5.2738380037638 4.607189885326 4.607189885326 4.607189885326 4.607189885326 0.85966450613999 0.85966450613999 0.85966450613999 0.85966450613999 6.1349100316334 6.1349100316334 6.1349100316334 6.1349100316334 1.825545876202 1.8432571473738 1.6402053858301 1.825545876202 0.14746004193454 0.14746004193454 0.14746004193454 0.14746004193454 4.0304405837781 4.0304405837781 4.0304405837781 4.0304405837781 2.9306140410342 2.9306140410342 2.9306140410342 2.9306140410342 4.8267924700065 4.8267924700065 4.8267924700065 4.8267924700065 64.803239111916 64.803239111916 64.803239111916 64.803239111916 4.8926043065366 4.8926043065366 4.8926043065366 4.8926043065366 21.049145431076 21.049145431076 21.049145431076 21.049145431076 4.6860723046745 4.6860723046745 4.6860723046745 4.6860723046745 10.870561941831 10.870561941831 10.870561941831 10.870561941831 7.1877750981505 7.1877750981505 7.1877750981505 7.1877750981505 4.7031951581666 4.7031951581666 4.7031951581666 4.7031951581666 10.454823921671 10.454823921671 10.454823921671 10.454823921671 6.0142568736437 6.0142568736437 6.0142568736437 6.0142568736437 6.2745881912945 6.2745881912945 6.2745881912945 6.2745881912945 5.5111504340226 5.5111504340226 5.5111504340226 5.5111504340226 5.49051889577 5.49051889577 5.49051889577 5.49051889577 4.7797716497127 4.7797716497127 4.7797716497127 4.7797716497127 4.8310866859294 4.8310866859294 4.8310866859294 4.8310866859294 5.5475808934906 5.5475808934906 5.5475808934906 5.5475808934906 5.0196021147165 5.0196021147165 5.0196021147165 5.0196021147165 4.3275974546044 4.3275974546044 4.3275974546044 4.3275974546044 4.5532100040959 4.5532100040959 4.5532100040959 4.5532100040959 7.5849987328916 7.5849987328916 7.5849987328916 7.5849987328916 6.0745139287185 6.0745139287185 6.0745139287185 6.0745139287185 4.9770642432409 4.9770642432409 4.9770642432409 4.9770642432409 5.7277589115624 5.7277589115624 5.7277589115624 5.7277589115624 7.5149814144649 7.5149814144649 7.5149814144649 7.5149814144649 5.3449186499823 5.3449186499823 5.3449186499823 5.3449186499823 5.0934394986016 5.0934394986016 5.0934394986016 5.0934394986016 6.9637907271106 6.9637907271106 6.9637907271106 6.9637907271106 6.0374146683153 6.0374146683153 6.0374146683153 6.0374146683153 7.0840642117735 7.0840642117735 7.0840642117735 7.0840642117735 5.212193520933 5.212193520933 5.212193520933 5.212193520933 4.5231462936786 4.5231462936786 4.5231462936786 4.5231462936786 6.9110454745471 6.9110454745471 6.9110454745471 6.9110454745471 5.5750762850699 5.5750762850699 5.5750762850699 5.5750762850699 5.1547688716392 5.1547688716392 5.1547688716392 5.1547688716392 7.2224916274834 7.2224916274834 7.2224916274834 7.2224916274834 5.1107097501232 5.1107097501232 5.1107097501232 5.1107097501232 4.2972458734256 4.2972458734256 4.2972458734256 4.2972458734256 4.9859705382511 4.9859705382511 4.9859705382511 4.9859705382511 4.1229463672881 4.1229463672881 4.1229463672881 4.1229463672881 6.7314987939946 6.7314987939946 6.7314987939946 6.7314987939946 6.8501746865945 6.8501746865945 6.8501746865945 6.8501746865945 5.9855453092591 5.9855453092591 5.9855453092591 5.9855453092591 5.4261664625102 5.4261664625102 5.4261664625102 5.4261664625102 6.3090572565883 6.3090572565883 6.3090572565883 6.3090572565883 7.8713358998478 7.8713358998478 7.8713358998478 7.8713358998478 5.5078396502841 5.5078396502841 5.5078396502841 5.5078396502841 28.753287458352 28.753287458352 28.753287458352 28.753287458352 257.44847597299 257.44847597299 257.44847597299 257.44847597299 10.50859094308 10.50859094308 10.50859094308 10.50859094308 30.585577702619 30.585577702619 30.585577702619 30.585577702619 21.584373803188 21.584373803188 21.584373803188 21.584373803188 2.9154047846792 2.9154047846792 2.9154047846792 2.9154047846792 47.237411939489 47.237411939489 47.237411939489 47.237411939489 3.2110985179857 3.2110985179857 3.2110985179857 3.2110985179857 5.549072599977 5.549072599977 5.549072599977 5.54907259997