# vtk DataFile Version 3.0
d-2__ created by libgimli-v1.0.12
ASCII
DATASET UNSTRUCTURED_GRID
POINTS 884 double
-20	0	0
-20	-30	0
51.5	-30	0
51.5	0	0
-1	-6	0
-1	0	0
32.5	0	0
32.5	-6	0
0	0	0
0.5	0	0
1	0	0
1.5	0	0
2	0	0
2.5	0	0
3	0	0
3.5	0	0
4	0	0
4.5	0	0
5	0	0
5.5	0	0
6	0	0
6.5	0	0
7	0	0
7.5	0	0
8	0	0
8.5	0	0
9	0	0
9.5	0	0
10	0	0
10.5	0	0
11	0	0
11.5	0	0
12	0	0
12.5	0	0
13	0	0
13.5	0	0
14	0	0
14.5	0	0
15	0	0
15.5	0	0
16	0	0
16.5	0	0
17	0	0
17.5	0	0
18	0	0
18.5	0	0
19	0	0
19.5	0	0
20	0	0
20.5	0	0
21	0	0
21.5	0	0
22	0	0
22.5	0	0
23	0	0
23.5	0	0
24	0	0
24.5	0	0
25	0	0
25.5	0	0
26	0	0
26.5	0	0
27	0	0
27.5	0	0
28	0	0
28.5	0	0
29	0	0
29.5	0	0
30	0	0
30.5	0	0
31	0	0
31.5	0	0
15.75	-6	0
27.797107756143	-0.434008520233	0
15.242425999875	-0.582595913267	0
-1	-1	0
7.375	-6	0
12.209316669993	-1.296818688864	0
12.806185988137	-0.62603501862	0
18.160045778682	-0.803765737747	0
30.273806205115	-0.447592215854	0
4.770742668773	-0.440647246343	0
28.871046137402	-0.859914799766	0
31.101098884877	-1.254619749473	0
19.219577586043	-0.385483933355	0
17.363376593092	-1.204598846646	0
14.720343995824	-0.314305000287	0
16.684829063045	-0.696482445862	0
15.77136182935	-0.31058639426	0
1.835786138465	-0.649690550365	0
0.747893460355	-0.6465594028	0
3.130752279537	-0.638599587137	0
18.776432876207	-1.597132734324	0
4.303980272935	-0.478703540312	0
11.444590626593	-0.730632176404	0
10.673281842433	-0.548713572368	0
14.660193677952	-1.452563203723	0
13.799460915892	-0.642760204654	0
13.276341977145	-0.317260136598	0
12.256753928693	-0.327407221258	0
17.668425983964	-0.3681649199	0
19.740359716803	-0.607451378541	0
18.789456695461	-0.417890692151	0
24.125	-6	0
20.754024297134	-0.471942895338	0
15.936586912703	-0.63939276429	0
31.357445153156	-0.606824088923	0
-1	-2	0
29.722289337184	-0.612279392564	0
29.273339459752	-0.368023267997	0
28.233970592211	-0.452727678821	0
30.76844215196	-0.562134874005	0
17.255900234364	-0.350186214792	0
11.863221203052	-0.34479534168	0
14.313226041637	-0.324274890775	0
15.806851241363	-1.275655999992	0
16.17852186555	-0.32937465104	0
2.300694216093	-0.368233288293	0
1.218219014707	-1.334028412428	0
1.260390830893	-0.526028867522	0
2.683178086093	-0.366408659846	0
20.27853302386	-0.411670313538	0
2.868681276629	-1.435988214721	0
27.249471270504	-0.748083522628	0
10.219786365709	-0.3654936157	0
3.785438566651	-0.570486541886	0
8.121873801189	-0.829629042112	0
14.547040016894	-0.663415934497	0
12.115875038137	-0.665227845358	0
17.426487255292	-0.684827182493	0
19.06738881857	-0.898095880374	0
28.272098731895	-1.798899396584	0
20.397437096519	-0.976493201712	0
26.696344549406	-0.434329134599	0
21.273774152056	-0.450797493175	0
24.697289106435	-0.707859174798	0
32.5	-2	0
2.484282211122	-0.825602952044	0
5.776840952399	-0.737397491894	0
5.2141659969	-0.419166817094	0
9.786169751694	-0.415485578511	0
10.737176971942	-1.332211710096	0
3.593183458524	-1.273129627264	0
8.912375272351	-0.589321815226	0
7.660424281818	-0.384471144789	0
28.001404995441	-0.970218332837	0
26.228595810416	-0.445660487588	0
26.911938268296	-1.641048644393	0
21.75978352922	-0.419643169345	0
21.071924220862	-0.986567121236	0
25.364678742804	-0.539938066167	0
24.185504635665	-0.416836241183	0
2.086375508525	-1.495278201223	0
6.732134918747	-0.668633413837	0
6.2522221078	-0.351500579736	0
5.023324498493	-0.917992659515	0
9.342634221662	-0.37819290069	0
10.14139893678	-0.862512900551	0
7.262170476805	-0.357636313691	0
25.794180468071	-0.374528175909	0
27.584139544267	-1.528395842776	0
26.502638091436	-0.978407226354	0
22.667922762571	-0.648880666633	0
22.192822824655	-0.385266538468	0
21.554473341722	-0.82168598069	0
21.629178748713	-1.39095876658	0
22.035269163061	-0.855902206848	0
23.793982858923	-0.390692526195	0
7.317673653082	-1.434967585356	0
4.583031959469	-0.828579683962	0
9.515870532316	-0.885732281587	0
9.919013032511	-1.626331368341	0
27.484903081908	-2.484499593312	0
25.876806931161	-0.887179356383	0
26.050829410239	-1.714540372803	0
23.751520724471	-1.802497508532	0
23.348042820539	-0.550734592641	0
7.418789686459	-0.73506973734	0
4.184556182775	-1.033154977408	0
8.99652160957	-1.441543856913	0
25.317796441717	-1.270035782566	0
23.934703213215	-0.98442684673	0
4.20914991104	-1.775752030461	0
23.189449546853	-1.278187900303	0
4.632544672084	-1.272991440217	0
5.162824123911	-1.809869543008	0
19.717811649413	-1.573512193187	0
13.295173735134	-1.756021281533	0
26.596142427329	-2.394037071224	0
25.806318207814	-2.803100806614	0
29.863904107331	-2.794006263582	0
24.574457679692	-1.741946499191	0
3.380338741593	-2.185943343802	0
22.405746170861	-1.46623979567	0
19.9375	-6	0
22.895227876615	-3.528228213238	0
9.339835879885	-2.666479073563	0
24.027204853475	-2.7899613712	0
25.340005943181	-2.027838558411	0
3.1875	-6	0
23.025836453988	-2.212449107464	0
24.948676624993	-2.608899756418	0
0.137385901641	-0.650268444551	0
21.883884359732	-2.406443066349	0
24.993574364445	-3.680802376816	0
2.772695625336	-3.352014508654	0
0.371017131973	-1.369883015726	0
-0.442887982702	-0.58928793093	0
2.536542046807	-2.199318328157	0
-0.35187891388	-1.296301277689	0
0.651101536637	-2.124203852698	0
-0.176870222732	-2.168573793959	0
-1	-4	0
11.5625	-6	0
28.3125	-6	0
30.378324567412	-1.064008198613	0
32.5	-1	0
31.938768010607	-0.571856002449	0
29.759431780222	-1.547068993946	0
31.836417431968	-1.252526523825	0
31.621213098872	-2.082003401636	0
30.64482025841	-1.960953569013	0
6.331030957214	-1.732618499778	0
20.819452446516	-1.800538823008	0
19.086991690553	-2.647877375026	0
1.574415732129	-2.527999057695	0
26.724464789324	-3.327292501443	0
28.613338721297	-2.960569048985	0
32.5	-4	0
20.134588675733	-2.478744920885	0
32.5	-3	0
20.147652876377	-3.580955305586	0
20.899272262275	-2.78492846011	0
-9	0	0
4.30160776607	-3.080673318645	0
40.5	0	0
31.144911403172	-3.024343434694	0
-5	0	0
34.239308533004	-3.258524555924	0
-3	0	0
36.5	0	0
34.5	0	0
33.412287564133	-2.17315588126	0
-2.391375181771	-1.482586564501	0
-2	0	0
33.462049262775	-1.111452039148	0
35.364497555181	-1.642666705407	0
33.5	0	0
34.359896511723	-1.495139629535	0
35.181110417226	-0.784505809709	0
10.787745494458	-2.567774752262	0
8.172904030386	-2.051002462016	0
7.131797597321	-2.592773144142	0
6.110433860065	-4.36812899141	0
25.985589385679	-3.867224943479	0
26.21875	-6	0
26.782133529099	-4.67267381373	0
25.620068785319	-4.852119524582	0
24.567636180482	-4.891547201498	0
23.996414572172	-3.951093957343	0
25.171875	-6	0
22.03125	-6	0
19.546872799148	-7.877297464663	0
25.929976316627	-7.033411794544	0
23.078125	-6	0
22.320352957855	-4.810618915959	0
21.509402993058	-3.654523015166	0
23.497200370906	-4.863670518492	0
18.13189091842	-7.287099712346	0
15.75	-30	0
20.909082009597	-4.813605058907	0
29.075993509061	-1.992024924658	0
28.563644703568	-4.091271132755	0
1.487335648253	-3.970442609571	0
11.462851541048	-1.65457624134	0
11.931357781103	-3.600589010753	0
12.137882226945	-2.343931194831	0
13.143137437822	-3.186080469827	0
13.65625	-6	0
15.033789409698	-3.549003235839	0
13.049683446894	-4.677182030888	0
5.866095586601	-3.152256976708	0
24.086848237998	-9.147754825507	0
27.203583902241	-6.821105086437	0
30.40625	-6	0
0.268444831165	-3.221309104019	0
1.09375	-6	0
30.46608783716	-4.252932221665	0
-2.505302419723	-4.450383103326	0
-1	-5	0
0.343064318735	-4.758141536153	0
-2.122362346734	-5.723292558912	0
0.046875	-6	0
-3.798732802515	-5.882252524636	0
-0.472737085934	-7.409875813014	0
0.761985221366	-7.096878211872	0
-2.316387005981	-7.284381067071	0
2.460222776671	-4.848402689262	0
24.855865766704	-6.917415037797	0
2.166270408376	-7.16398466366	0
1.505003805676	-5.115381417955	0
17.849034282985	-2.053162807643	0
16.861511952067	-2.93798707793	0
17.998380691391	-3.395771861265	0
18.983944003306	-3.844625743579	0
17.84375	-6	0
19.507910634651	-4.833727238325	0
18.178607746471	-4.761287392657	0
18.890625	-6	0
22.568292113527	-7.022809075194	0
23.798224546243	-7.373279227529	0
16.995626263554	-5.127842924513	0
21.31870713019	-7.397155750661	0
25.257469206771	-8.180442189541	0
22.620521758505	-8.34516941587	0
26.00212490124	-10.329086257739	0
26.876106981071	-8.280200434744	0
17.030639772028	-4.124067563613	0
0.964917986289	-8.913487275159	0
16.660903572044	-7.451592429184	0
22.745266168396	-9.992764456142	0
15.97500087655	-3.767042764781	0
15.621035736719	-2.500674757612	0
15.129165136322	-4.735235720992	0
17.718970450758	-9.107836188379	0
16.176018110195	-4.751006067781	0
-4.03092130434	-1.322550405037	0
9.46875	-6	0
7.844476969742	-4.614156356351	0
27.265625	-6	0
27.689741105711	-3.742617031843	0
27.969442848251	-4.919766747392	0
14.314251536675	-2.740238932373	0
11.741876300768	-4.874724541347	0
10.733533745453	-3.95005438352	0
10.566940085054	-5.019478624613	0
9.329261664226	-4.272154596974	0
12.609375	-6	0
12.079434094526	-7.544436782648	0
13.335842475627	-7.165023463139	0
13.558657316918	-9.034852985558	0
14.773346438017	-7.245876064562	0
14.133867697308	-3.99510747378	0
14.134339573608	-5.081593160399	0
14.703125	-6	0
29.359375	-6	0
28.619784547379	-7.611041928373	0
30.043582192298	-7.291337515271	0
30.29810473259	-9.175522360467	0
31.53315736601	-7.66461306827	0
-1.943690751077	-2.998308418434	0
-1	-3	0
29.341991466888	-3.822137349625	0
29.202767389953	-5.012284085892	0
31.529144272416	-5.061868721118	0
32.5	-5	0
34.06080169963	-5.203322471526	0
33.325061789911	-4.365589944271	0
31.773359425874	-4.05651442384	0
2.140625	-6	0
5.28125	-6	0
5.11600001038	-8.435133597493	0
16.697704156331	-1.778329677992	0
21.213444602898	-9.139589165638	0
-5.998391584547	-2.072769101262	0
8.131743676138	-3.340352423984	0
6.973330654784	-3.845427040253	0
6.756106517678	-5.004921703214	0
5.905632234091	-5.201885467477	0
5.052487620854	-4.636519492102	0
6.328125	-6	0
3.668145686229	-4.652913642933	0
5.958674072582	-7.129942484896	0
7.031971644254	-6.970090390063	0
7.107434302181	-8.412477529883	0
8.383382011393	-7.307375570317	0
4.234375	-6	0
3.798684775298	-7.242923154345	0
4.87814906556	-6.961580241321	0
[...]
CELL_DATA 1619
SCALARS _Attribute double 1
LOOKUP_TABLE default
1 1 1 2 2 2 2 2 2 2 2 1 2 2 2 2 2 2 2 2 2 2 2 2 2 2 2 2 2 2 2 2 2 2 2 2 2 2 2 1 2 2 2 2 2 2 2 2 2 2 2 2 2 2 2 2 2 2 2 2 2 2 2 2 2 2 2 2 1 2 2 2 2 2 2 2 2 2 2 2 2 2 2 2 2 2 2 2 1 2 2 2 2 2 2 2 2 1 2 2 2 2 1 2 2 2 2 2 2 2 2 2 2 2 2 2 2 2 2 2 2 2 2 2 2 2 2 2 2 2 1 2 2 2 1 2 2 2 2 2 2 2 2 2 2 2 2 2 2 2 2 2 2 2 2 2 2 2 2 2 2 2 2 2 2 2 1 2 2 2 2 2 2 2 2 2 2 2 2 2 2 2 2 2 2 2 2 2 2 2 2 2 2 2 2 2 2 2 2 2 2 2 2 2 2 2 2 2 2 2 2 2 2 2 2 2 2 2 2 2 2 2 1 2 2 2 2 2 2 2 2 2 2 2 2 2 2 2 2 2 2 2 2 2 2 2 2 2 2 2 2 2 2 2 2 2 2 2 2 2 2 2 2 2 2 2 2 2 2 2 2 2 2 2 2 2 2 2 2 2 2 2 2 2 2 2 2 2 2 2 2 2 2 2 2 2 2 2 1 2 2 2 2 2 2 2 2 2 2 2 2 2 2 2 2 2 2 2 2 2 2 2 2 2 2 2 2 2 2 1 2 2 2 2 2 2 2 2 2 2 2 2 2 2 1 2 2 2 2 2 2 2 2 2 1 2 2 2 2 2 2 1 2 2 2 2 2 2 2 2 2 2 2 2 2 2 2 2 2 2 2 2 2 2 2 1 2 2 2 1 2 2 2 2 1 1 2 2 1 2 1 1 1 1 1 1 1 1 1 1 1 1 1 1 1 1 1 1 1 1 2 2 2 2 2 2 2 2 2 2 2 1 2 2 2 2 2 2 2 1 2 1 2 2 1 1 1 1 1 2 2 2 2 2 2 2 1 1 1 1 2 2 2 2 2 2 1 2 2 2 1 2 2 2 2 2 2 1 2 2 2 2 2 2 1 1 1 1 2 1 2 2 1 2 2 2 1 2 2 1 2 2 1 1 2 1 1 1 1 1 1 1 1 1 2 2 1 1 1 1 2 2 2 2 2 2 2 2 2 2 2 1 2 2 2 2 2 1 1 1 1 1 2 2 1 1 1 1 1 1 1 1 1 2 2 1 1 1 1 1 1 2 2 2 2 2 2 1 1 2 2 1 1 2 2 2 2 2 1 2 2 2 2 2 2 2 2 2 2 2 2 2 2 2 1 1 1 1 1 1 1 1 1 2 2 2 2 2 1 2 1 1 1 1 1 1 1 1 1 1 1 2 1 2 2 2 2 2 2 2 1 1 1 1 1 2 2 2 1 2 2 1 1 2 2 1 1 1 1 2 2 2 2 2 2 2 2 2 2 2 1 2 2 1 1 1 1 1 1 1 1 1 2 1 1 1 1 2 2 2 2 1 1 1 1 1 1 1 1 1 1 1 1 1 1 1 1 1 1 1 1 1 1 1 1 1 1 1 1 1 1 1 1 1 1 1 1 1 1 1 1 1 1 1 1 1 1 1 1 1 1 1 1 1 1 1 1 1 1 1 1 1 1 1 1 1 1 1 1 1 1 1 1 1 1 1 1 1 1 1 1 1 1 1 1 1 1 1 1 1 1 1 1 1 1 1 1 1 1 1 1 1 1 1 1 1 1 1 1 1 1 1 1 1 1 1 1 1 1 1 1 1 1 1 1 1 1 1 1 1 1 1 1 1 1 1 1 1 1 1 1 1 1 1 1 1 1 1 1 1 1 1 1 1 1 1 1 1 1 1 1 1 1 1 1 1 1 1 1 1 1 1 1 1 1 1 1 1 1 1 1 1 1 1 1 1 1 1 1 1 1 1 1 1 1 1 1 1 1 1 1 1 1 1 1 1 1 1 1 1 1 1 1 1 1 1 1 1 1 1 1 1 1 1 1 1 1 1 1 1 1 1 1 1 1 1 1 1 1 1 1 1 1 1 1 1 1 1 1 1 1 1 1 1 1 1 1 1 1 1 1 1 1 1 1 1 1 1 1 1 1 1 1 1 1 1 1 1 1 1 1 1 1 1 1 1 1 1 1 1 1 1 1 1 1 1 1 1 1 1 1 1 1 1 1 1 1 1 1 1 1 1 1 1 1 1 1 1 1 1 1 1 1 1 1 1 1 1 1 1 1 1 1 1 1 1 1 1 1 1 1 1 1 1 1 1 1 1 1 1 1 1 1 1 1 1 1 1 1 1 1 1 1 1 1 1 1 1 1 1 1 1 1 1 1 1 1 1 1 1 1 1 1 1 1 1 1 1 1 1 1 1 1 1 1 1 1 1 1 1 1 1 1 1 1 1 1 1 1 1 1 1 1 1 1 1 1 1 1 1 1 1 1 1 1 1 1 1 1 1 1 1 1 1 1 1 1 1 1 1 1 1 1 1 1 1 1 1 1 1 1 1 1 1 1 1 1 1 1 1 1 1 1 1 1 1 1 1 1 1 1 1 1 1 1 1 1 1 1 1 1 1 1 1 1 1 1 1 1 1 1 1 1 1 1 1 1 1 1 1 1 1 1 1 1 1 1 1 1 1 1 1 1 1 1 1 1 1 1 1 1 1 1 1 1 1 1 1 1 1 1 1 1 1 1 1 1 1 1 1 1 1 1 1 1 1 1 1 1 1 1 1 1 1 1 1 1 1 1 1 1 1 1 1 1 1 1 1 1 1 1 1 1 1 1 1 1 1 1 1 1 1 1 1 1 1 1 1 1 1 1 1 1 1 1 1 1 1 1 1 1 1 1 1 1 1 1 1 1 1 1 1 1 1 1 1 1 1 1 1 1 1 1 1 1 1 1 1 1 1 1 1 1 1 1 1 1 1 1 1 1 1 1 1 1 1 1 1 1 1 1 1 1 1 1 1 1 1 1 1 1 1 1 1 1 1 1 1 1 1 1 1 1 1 1 1 1 1 1 1 1 1 1 1 1 1 1 1 1 1 1 1 1 1 1 1 1 1 1 1 1 1 1 1 1 1 1 1 1 1 1 1 1 1 1 1 1 1 1 1 1 1 1 1 1 1 1 1 1 1 1 1 1 1 1 1 1 1 1 1 1 1 1 1 1 1 1 1 1 1 1 1 1 1 1 1 1 1 1 1 1 1 1 1 1 1 1 1 1 1 1 1 1 1 1 1 1 1 1 1 1 1 1 1 1 1 1 1 1 1 1 1 1 1 1 1 1 1 1 1 1 1 1 1 1 1 1 1 1 1 1 1 1 1 1 1 1 1 1 1 1 1 1 1 1 1 1 1 1 1 1 1 1 1 1 1 1 1 1 1 1 1 1 1 1 1 1 1 1 1 1 1 1 1 1 1 1 1 1 1 1 1 1 1 1 1 1 1 1 1 1 1 1 1 1 1 1 1 1 1 1 1 1 1 1 1 1 1 1 1 1 1 1 1 1 1 1 1 1 1 1 1 1 1 1 1 1 1 1 1 1 1 1 1 1 1 1 1 1 1 1 1 1 1 1 1 1 1 1 1 1 1 1 1 1 1 1 1 1 
SCALARS _Marker double 1
LOOKUP_TABLE default
1 1 1 2 2 2 2 2 2 2 2 1 2 2 2 2 2 2 2 2 2 2 2 2 2 2 2 2 2 2 2 2 2 2 2 2 2 2 2 1 2 2 2 2 2 2 2 2 2 2 2 2 2 2 2 2 2 2 2 2 2 2 2 2 2 2 2 2 1 2 2 2 2 2 2 2 2 2 2 2 2 2 2 2 2 2 2 2 1 2 2 2 2 2 2 2 2 1 2 2 2 2 1 2 2 2 2 2 2 2 2 2 2 2 2 2 2 2 2 2 2 2 2 2 2 2 2 2 2 2 1 2 2 2 1 2 2 2 2 2 2 2 2 2 2 2 2 2 2 2 2 2 2 2 2 2 2 2 2 2 2 2 2 2 2 2 1 2 2 2 2 2 2 2 2 2 2 2 2 2 2 2 2 2 2 2 2 2 2 2 2 2 2 2 2 2 2 2 2 2 2 2 2 2 2 2 2 2 2 2 2 2 2 2 2 2 2 2 2 2 2 2 1 2 2 2 2 2 2 2 2 2 2 2 2 2 2 2 2 2 2 2 2 2 2 2 2 2 2 2 2 2 2 2 2 2 2 2 2 2 2 2 2 2 2 2 2 2 2 2 2 2 2 2 2 2 2 2 2 2 2 2 2 2 2 2 2 2 2 2 2 2 2 2 2 2 2 2 1 2 2 2 2 2 2 2 2 2 2 2 2 2 2 2 2 2 2 2 2 2 2 2 2 2 2 2 2 2 2 1 2 2 2 2 2 2 2 2 2 2 2 2 2 2 1 2 2 2 2 2 2 2 2 2 1 2 2 2 2 2 2 1 2 2 2 2 2 2 2 2 2 2 2 2 2 2 2 2 2 2 2 2 2 2 2 1 2 2 2 1 2 2 2 2 1 1 2 2 1 2 1 1 1 1 1 1 1 1 1 1 1 1 1 1 1 1 1 1 1 1 2 2 2 2 2 2 2 2 2 2 2 1 2 2 2 2 2 2 2 1 2 1 2 2 1 1 1 1 1 2 2 2 2 2 2 2 1 1 1 1 2 2 2 2 2 2 1 2 2 2 1 2 2 2 2 2 2 1 2 2 2 2 2 2 1 1 1 1 2 1 2 2 1 2 2 2 1 2 2 1 2 2 1 1 2 1 1 1 1 1 1 1 1 1 2 2 1 1 1 1 2 2 2 2 2 2 2 2 2 2 2 1 2 2 2 2 2 1 1 1 1 1 2 2 1 1 1 1 1 1 1 1 1 2 2 1 1 1 1 1 1 2 2 2 2 2 2 1 1 2 2 1 1 2 2 2 2 2 1 2 2 2 2 2 2 2 2 2 2 2 2 2 2 2 1 1 1 1 1 1 1 1 1 2 2 2 2 2 1 2 1 1 1 1 1 1 1 1 1 1 1 2 1 2 2 2 2 2 2 2 1 1 1 1 1 2 2 2 1 2 2 1 1 2 2 1 1 1 1 2 2 2 2 2 2 2 2 2 2 2 1 2 2 1 1 1 1 1 1 1 1 1 2 1 1 1 1 2 2 2 2 1 1 1 1 1 1 1 1 1 1 1 1 1 1 1 1 1 1 1 1 1 1 1 1 1 1 1 1 1 1 1 1 1 1 1 1 1 1 1 1 1 1 1 1 1 1 1 1 1 1 1 1 1 1 1 1 1 1 1 1 1 1 1 1 1 1 1 1 1 1 1 1 1 1 1 1 1 1 1 1 1 1 1 1 1 1 1 1 1 1 1 1 1 1 1 1 1 1 1 1 1 1 1 1 1 1 1 1 1 1 1 1 1 1 1 1 1 1 1 1 1 1 1 1 1 1 1 1 1 1 1 1 1 1 1 1 1 1 1 1 1 1 1 1 1 1 1 1 1 1 1 1 1 1 1 1 1 1 1 1 1 1 1 1 1 1 1 1 1 1 1 1 1 1 1 1 1 1 1 1 1 1 1 1 1 1 1 1 1 1 1 1 1 1 1 1 1 1 1 1 1 1 1 1 1 1 1 1 1 1 1 1 1 1 1 1 1 1 1 1 1 1 1 1 1 1 1 1 1 1 1 1 1 1 1 1 1 1 1 1 1 1 1 1 1 1 1 1 1 1 1 1 1 1 1 1 1 1 1 1 1 1 1 1 1 1 1 1 1 1 1 1 1 1 1 1 1 1 1 1 1 1 1 1 1 1 1 1 1 1 1 1 1 1 1 1 1 1 1 1 1 1 1 1 1 1 1 1 1 1 1 1 1 1 1 1 1 1 1 1 1 1 1 1 1 1 1 1 1 1 1 1 1 1 1 1 1 1 1 1 1 1 1 1 1 1 1 1 1 1 1 1 1 1 1 1 1 1 1 1 1 1 1 1 1 1 1 1 1 1 1 1 1 1 1 1 1 1 1 1 1 1 1 1 1 1 1 1 1 1 1 1 1 1 1 1 1 1 1 1 1 1 1 1 1 1 1 1 1 1 1 1 1 1 1 1 1 1 1 1 1 1 1 1 1 1 1 1 1 1 1 1 1 1 1 1 1 1 1 1 1 1 1 1 1 1 1 1 1 1 1 1 1 1 1 1 1 1 1 1 1 1 1 1 1 1 1 1 1 1 1 1 1 1 1 1 1 1 1 1 1 1 1 1 1 1 1 1 1 1 1 1 1 1 1 1 1 1 1 1 1 1 1 1 1 1 1 1 1 1 1 1 1 1 1 1 1 1 1 1 1 1 1 1 1 1 1 1 1 1 1 1 1 1 1 1 1 1 1 1 1 1 1 1 1 1 1 1 1 1 1 1 1 1 1 1 1 1 1 1 1 1 1 1 1 1 1 1 1 1 1 1 1 1 1 1 1 1 1 1 1 1 1 1 1 1 1 1 1 1 1 1 1 1 1 1 1 1 1 1 1 1 1 1 1 1 1 1 1 1 1 1 1 1 1 1 1 1 1 1 1 1 1 1 1 1 1 1 1 1 1 1 1 1 1 1 1 1 1 1 1 1 1 1 1 1 1 1 1 1 1 1 1 1 1 1 1 1 1 1 1 1 1 1 1 1 1 1 1 1 1 1 1 1 1 1 1 1 1 1 1 1 1 1 1 1 1 1 1 1 1 1 1 1 1 1 1 1 1 1 1 1 1 1 1 1 1 1 1 1 1 1 1 1 1 1 1 1 1 1 1 1 1 1 1 1 1 1 1 1 1 1 1 1 1 1 1 1 1 1 1 1 1 1 1 1 1 1 1 1 1 1 1 1 1 1 1 1 1 1 1 1 1 1 1 1 1 1 1 1 1 1 1 1 1 1 1 1 1 1 1 1 1 1 1 1 1 1 1 1 1 1 1 1 1 1 1 1 1 1 1 1 1 1 1 1 1 1 1 1 1 1 1 1 1 1 1 1 1 1 1 1 1 1 1 1 1 1 1 1 1 1 1 1 1 1 1 1 1 1 1 1 1 1 1 1 1 1 1 1 1 1 1 1 1 1 1 1 1 1 1 1 1 1 1 1 1 1 1 1 1 1 1 1 1 1 1 1 1 1 1 1 1 1 1 1 1 1 1 1 1 1 1 1 1 1 1 1 1 1 1 1 1 1 1 1 1 1 1 1 1 1 1 1 1 1 1 1 1 1 1 1 1 1 1 1 1 1 1 1 1 1 1 1 1 1 1 1 
POINT_DATA 884
