# vtk DataFile Version 3.0
d-2__ created by libgimli-v1.0.12
ASCII
DATASET UNSTRUCTURED_GRID
POINTS 5846 double
-20	0	0
-20	-30	0
51.5	-30	0
51.5	0	0
-1	-6	0
-1	0	0
32.5	0	0
32.5	-6	0
0	0	0
0.035486447755	-0.291927345908	0
0.5	0	0
0.491688001619	-0.337793246669	0
1	0	0
1.009834562583	-0.343965223165	0
1.5	0	0
1.517856783727	-0.323951624719	0
2	0	0
1.997454347846	-0.290347050765	0
2.5	0	0
2.476257670651	-0.320891106913	0
3	0	0
2.980648500035	-0.338031948282	0
3.5	0	0
3.495460573424	-0.342844737767	0
4	0	0
4.008928045252	-0.345899641032	0
4.5	0	0
4.526341261963	-0.349167797562	0
5	0	0
5.041105022532	-0.340150743513	0
5.5	0	0
5.542984115479	-0.309103645511	0
6	0	0
6.035799329289	-0.294841057559	0
6.5	0	0
6.536273054681	-0.298521592857	0
7	0	0
7.037197776941	-0.286172449215	0
7.5	0	0
7.517478704143	-0.259260382769	0
8	0	0
8.004166828714	-0.287089623282	0
8.5	0	0
8.506115467486	-0.28498362459	0
9	0	0
8.989371480441	-0.254459471254	0
9.5	0	0
9.467245824481	-0.281771518621	0
10	0	0
9.972377913884	-0.303280168027	0
10.5	0	0
10.494798616198	-0.317167826673	0
11	0	0
11.010616273613	-0.310335601759	0
11.5	0	0
11.502774742404	-0.282639512148	0
12	0	0
11.99548212361	-0.309500183949	0
12.5	0	0
12.511675723632	-0.315952663428	0
13	0	0
13.03460634048	-0.302462591325	0
13.5	0	0
13.539963790964	-0.281059570821	0
14	0	0
14.016103004852	-0.251877449649	0
14.5	0	0
14.495432809405	-0.277065553896	0
15	0	0
14.998374190628	-0.288681607244	0
15.5	0	0
15.509096591935	-0.285735397848	0
16	0	0
16.008890205367	-0.27187038273	0
16.5	0	0
16.487111265512	-0.253164162516	0
17	0	0
16.971282188817	-0.300727306564	0
17.5	0	0
17.485042758216	-0.311659713203	0
18	0	0
17.990973960263	-0.280503270576	0
18.5	0	0
18.49026232633	-0.30761079753	0
19	0	0
19.000221976857	-0.302336730294	0
19.5	0	0
19.488415836336	-0.265561763143	0
20	0	0
19.967674581038	-0.28772849064	0
20.5	0	0
20.467369365388	-0.302331599617	0
21	0	0
20.97363594939	-0.310926487048	0
21.5	0	0
21.4785350505	-0.319641206921	0
22	0	0
21.986091654451	-0.329873887928	0
22.5	0	0
22.495507319955	-0.334550312303	0
23	0	0
23.006254224637	-0.335393901189	0
23.5	0	0
23.513400240183	-0.333582717239	0
24	0	0
24.019362482387	-0.330216634218	0
24.5	0	0
24.523237956951	-0.321295584913	0
25	0	0
25.017008958257	-0.298740202969	0
25.5	0	0
25.506391988699	-0.299223139694	0
26	0	0
26.009126883683	-0.328155329349	0
26.5	0	0
26.519754232125	-0.328928233886	0
27	0	0
27.025381053085	-0.308376024993	0
27.5	0	0
27.520953625254	-0.292024780457	0
28	0	0
27.995583137268	-0.268915195384	0
28.5	0	0
28.47234092997	-0.303116830069	0
29	0	0
28.977466419157	-0.324073222805	0
29.5	0	0
29.494586815324	-0.330347838693	0
30	0	0
30.003281486075	-0.325886230793	0
30.5	0	0
30.501239522701	-0.315524231541	0
31	0	0
31.002297044571	-0.317821134496	0
31.5	0	0
31.455231000826	-0.267750327997	0
15.75	-6	0
0.25	0	0
1.25	0	0
2.25	0	0
1.75	0	0
0.75	0	0
3.25	0	0
4.25	0	0
3.75	0	0
5.25	0	0
6.25	0	0
6.75	0	0
5.75	0	0
4.75	0	0
2.75	0	0
7.75	0	0
8.75	0	0
8.25	0	0
9.75	0	0
10.75	0	0
10.25	0	0
9.25	0	0
11.75	0	0
12.75	0	0
12.25	0	0
13.75	0	0
14.75	0	0
15.25	0	0
14.25	0	0
13.25	0	0
11.25	0	0
7.25	0	0
-0.5	0	0
15.75	0	0
16.25	0	0
17.25	0	0
16.75	0	0
18.25	0	0
19.25	0	0
18.75	0	0
17.75	0	0
20.25	0	0
21.25	0	0
20.75	0	0
22.25	0	0
23.25	0	0
23.75	0	0
22.75	0	0
21.75	0	0
19.75	0	0
24.75	0	0
25.75	0	0
25.25	0	0
26.75	0	0
26.25	0	0
27.75	0	0
28.75	0	0
28.25	0	0
29.75	0	0
30.75	0	0
31.25	0	0
30.25	0	0
29.25	0	0
27.25	0	0
24.25	0	0
32	0	0
-0.25	0	0
31.75	0	0
-1	-2	0
32.5	-2	0
-1	-1	0
32.5	-1	0
0.153594787174	-0.921312623909	0
31.321646213961	-0.804046785347	0
7.375	-6	0
2.669223842975	-0.926052094998	0
12.243081906438	-0.88740363201	0
14.723264531615	-0.79490366125	0
17.166748655408	-0.923614955059	0
20.144745640562	-0.818666195075	0
24.125	-6	0
28.65479240249	-0.878731923869	0
1.316455292902	-0.938946651637	0
30.736713929862	-0.836307538783	0
6.863754175933	-0.824760527774	0
9.638350980758	-0.809297330053	0
2.1867633849	-0.693062836777	0
4.848712717906	-0.967253068915	0
3.755023243159	-0.939083487314	0
13.381980490953	-0.807307965026	0
12.809010661694	-0.709157563469	0
11.711256974917	-0.677986918055	0
14.230107959312	-0.599199324358	0
15.795323335384	-0.776675643246	0
15.260345797021	-0.65806614554	0
16.658857375704	-0.612606894893	0
18.744088688453	-0.899454190765	0
17.765030202104	-0.673170751362	0
19.672482277747	-0.625608449574	0
22.223160002632	-0.913170727266	0
21.184274197653	-0.855379659538	0
20.684983056824	-0.697014654756	0
26.294519420715	-0.954603295664	0
29.760589588235	-0.906359360491	0
29.219117731567	-0.754143124389	0
28.177403141442	-0.647797675257	0
0.743184927557	-0.808414876679	0
30.264874677952	-0.727220735468	0
8.26734535398	-0.841719949509	0
7.342890885092	-0.618127222524	0
6.317299319825	-0.681477455412	0
9.170298519708	-0.603261850079	0
10.77453899223	-0.891942758081	0
10.206054535148	-0.712768117549	0
1.801584669225	-0.69579324563	0
1.935868556723	-1.935043976865	0
4.285911476752	-0.790207510923	0
5.369990474036	-0.754296117125	0
3.223858072945	-0.7774363501	0
12.873938957132	-1.229885835596	0
11.302372821581	-0.678772247432	0
13.847317041418	-0.601695816056	0
14.06077532018	-1.674701779475	0
15.275063298912	-1.140326480366	0
16.269832737757	-0.583091814024	0
16.653626605559	-1.5986739338	0
18.093284297521	-1.875425632569	0
18.195391882481	-0.66829648108	0
19.277755064458	-0.641405507175	0
19.460384743682	-1.815696566975	0
21.705711573406	-0.738928861364	0
24.312668112034	-0.902398587862	0
23.282011078439	-0.915591197874	0
22.753552832292	-0.760077269692	0
20.654528462103	-1.196144543539	0
25.74316311167	-0.71003993739	0
27.327473354266	-0.82695513541	0
26.808984815661	-0.707505889629	0
29.206906025928	-1.329542097592	0
27.797570234091	-0.637194100842	0
0.744628344325	-1.50103966239	0
30.321222850838	-1.250743665768	0
7.670187010487	-1.800238924638	0
7.737981946628	-0.620970536872	0
5.85426786975	-0.772771118225	0
8.781590037619	-0.609083964025	0
8.926321420711	-1.714553122278	0
11.52557900515	-1.984638406537	0
10.150119276387	-1.240589870178	0
1.989666019305	-1.233734400388	0
4.290753572073	-1.349513103168	0
3.219157999931	-1.341882318935	0
14.068394957674	-1.065639094428	0
13.50087088524	-1.451347896445	0
14.733873794355	-1.52323196771	0
16.3981706498	-0.997883271292	0
15.843408571902	-1.488043703819	0
17.9855606163	-1.178318938268	0
19.482820991508	-1.112383283552	0
21.656582750327	-1.274584483279	0
24.814164983529	-0.71286124284	0
23.786916547457	-0.749439862703	0
22.761356579159	-1.298852489967	0
20.081622434665	-1.504310739189	0
25.275588664844	-0.753306564951	0
27.946615202612	-1.834252831784	0
26.877519822345	-1.115961664749	0
29.80996906135	-1.621992788555	0
7.557943954382	-1.0966403646	0
5.563184183931	-1.38038969662	0
8.974584635086	-1.059166964677	0
12.288001931267	-1.73283426955	0
11.512831015657	-1.229335977218	0
9.527252747372	-1.458958509107	0
10.74510890623	-1.749609335817	0
1.409337908843	-1.669083744004	0
2.609034975292	-1.780281454181	0
3.761760703037	-1.626801709073	0
18.519844973003	-1.499201894838	0
21.135507163552	-1.44482019993	0
23.807803873005	-1.261748169606	0
22.204339317602	-1.647781307969	0
24.942873357023	-1.283153220798	0
28.561417297097	-1.638459712791	0
27.965806423224	-1.148296715066	0
27.294693294774	-1.571825942865	0
8.065145117233	-1.394448781353	0
6.296638755016	-1.214220036681	0
4.864370364313	-1.805044555895	0
3.502553110553	-2.672774184437	0
19.9375	-6	0
18.997105888679	-1.477994829177	0
23.34678798383	-1.659721996684	0
26.105600846311	-1.710588290897	0
25.630462591071	-1.209919637855	0
24.296200924496	-1.646058008722	0
7.982884842679	-2.42712138484	0
8.510591054554	-1.373682247669	0
18.776720184298	-2.060100092493	0
8.319346161929	-1.855602552755	0
19.937667369612	-2.984836361032	0
8.760805951922	-2.420510433375	0
11.084373764624	-2.558276980669	0
16.116827961294	-2.794462689503	0
30.596407006058	-2.311789979305	0
26.734499818846	-2.213986712232	0
6.223349671972	-2.050265334154	0
6.958195298369	-1.572330828935	0
4.22933903001	-1.968552349685	0
2.24552423078	-2.583850425343	0
6.474564199364	-3.77993459838	0
4.572067880647	-2.89725106896	0
23.824237402438	-1.687581009936	0
23.147717905815	-2.375630991782	0
24.16957156351	-2.70064966667	0
14.400044801647	-2.177579792341	0
13.598996521631	-2.139925671762	0
10.671170565718	-3.266729840161	0
16.171339323802	-2.093490739872	0
30.345288892899	-1.809205816926	0
27.82557187722	-3.035064435451	0
7.137370352975	-2.445175711052	0
11.229473505403	-3.816356101176	0
9.734060627796	-3.4142460353	0
15.315056685716	-2.207283148473	0
16.92453690772	-2.370130218806	0
27.548695467423	-2.342077485835	0
31.006435316593	-1.600112850834	0
29.700853704493	-2.87880889714	0
11.99792406261	-2.644830434748	0
28.359416794109	-2.461733423721	0
28.3125	-6	0
13.576453470301	-3.413257725877	0
-0.432182426902	-0.493120374568	0
31.906807038705	-0.484082984508	0
-0.042808875054	-1.779948148129	0
20.050976081265	-2.2270498272	0
19.368403406356	-2.502605588276	0
20.760816186432	-2.697070432089	0
10.159142196361	-2.521021761061	0
12.841848125352	-2.361403520184	0
32.5	-4	0
18.9379971752	-3.823838452157	0
31.820346353958	-1.316427505899	0
18.21052794881	-2.522965957242	0
8.319570796625	-2.937494367696	0
7.689925852057	-3.094622174558	0
11.407516095864	-3.175924087333	0
11.5625	-6	0
12.054546590196	-3.590444625623	0
10.412814205623	-4.107556198356	0
3.1875	-6	0
8.23861548732	-4.3917415581	0
9.46875	-6	0
28.74929792818	-3.712946768064	0
29.23220101267	-2.173164737804	0
19.19841144636	-3.203433626111	0
18.783250742904	-2.719427173178	0
19.799297867831	-3.879011670906	0
17.561646038154	-3.662434565906	0
7.026004171757	-3.238277586957	0
6.411306214732	-2.928099591179	0
7.41710693811	-3.94009139582	0
1.427226102277	-2.413099084174	0
5.711773118045	-2.710158331741	0
8.256836704962	-3.574567929745	0
8.968436178751	-3.914726681965	0
11.096343156818	-4.431147298234	0
11.734505800338	-4.319413233869	0
9.89770825066	-4.763840181453	0
28.403801582684	-3.184611422005	0
[...]
CELL_DATA 11244
SCALARS _Attribute double 1
LOOKUP_TABLE default
9.3358712209956 9.3376952120312 9.3188431476145 9.3246918826476 9.8114408225451 9.8114408225451 9.8114408225451 9.8114408225451 9.7074405252483 9.7074405252483 9.7074405252483 9.7074405252483 10.445939976686 10.445939976686 10.445939976686 10.445939976686 10.096970354192 10.096970354192 10.096970354192 10.096970354192 10.162546357943 10.162546357943 10.162546357943 10.162546357943 9.6871877449841 9.6871877449841 9.6871877449841 9.6871877449841 10.247539296745 10.247539296745 10.247539296745 10.247539296745 9.8458031214592 9.8458031214592 9.8458031214592 9.8458031214592 9.948208760342 9.948208760342 9.948208760342 9.948208760342 9.7228066801173 9.7228066801173 9.7228066801173 9.7228066801173 9.5498027462016 9.5498027462016 9.5498027462016 9.5498027462016 9.7864138761325 9.7864138761325 9.7864138761325 9.7864138761325 9.6229148227517 9.6229148227517 9.6229148227517 9.6229148227517 10.693762081971 10.693762081971 10.693762081971 10.693762081971 10.183948437705 10.183948437705 10.183948437705 10.183948437705 10.532496222557 10.532496222557 10.532496222557 10.532496222557 9.7452014640625 9.7452014640625 9.7452014640625 9.7452014640625 9.6001102645375 9.6001102645375 9.6001102645375 9.6001102645375 10.342899230134 10.342899230134 10.342899230134 10.342899230134 10.171491599951 10.171491599951 10.171491599951 10.171491599951 9.9788184214229 9.9788184214229 9.9788184214229 9.9788184214229 9.6088215733861 9.6088215733861 9.6088215733861 9.6088215733861 10.081576364012 10.081576364012 10.081576364012 10.081576364012 10.077393533516 10.077393533516 10.077393533516 10.077393533516 10.092611381373 10.092611381373 10.092611381373 10.092611381373 10.122007443145 10.122007443145 10.122007443145 10.122007443145 10.00296801263 10.00296801263 10.00296801263 10.00296801263 9.6011573289312 9.6011573289312 9.6011573289312 9.6011573289312 9.9544560365986 9.9544560365986 9.9544560365986 9.9544560365986 10.28545383702 10.28545383702 10.28545383702 10.28545383702 9.7750717616829 9.7750717616829 9.7750717616829 9.7750717616829 10.596714191753 10.596714191753 10.596714191753 10.596714191753 8.7695976437703 8.7695976437703 8.7695976437703 8.7695976437703 10.369817768775 10.369817768775 10.369817768775 10.369817768775 9.7746331518445 9.7746331518445 9.7746331518445 9.7746331518445 9.8286073785621 9.8286073785621 9.8286073785621 9.8286073785621 9.6756505489511 9.6756505489511 9.6756505489511 9.6756505489511 9.7522589691696 9.7522589691696 9.7522589691696 9.7522589691696 10.119738093603 10.119738093603 10.119738093603 10.119738093603 9.8009823952522 9.8009823952522 9.8009823952522 9.8009823952522 10.360262329985 10.360262329985 10.360262329985 10.360262329985 10.183488855957 10.183488855957 10.183488855957 10.183488855957 9.8413023245159 9.8413023245159 9.8413023245159 9.8413023245159 10.280329588942 10.280329588942 10.280329588942 10.280329588942 9.6914839832206 9.6914839832206 9.6914839832206 9.6914839832206 9.5977795510539 9.5977795510539 9.5977795510539 9.5977795510539 10.442609060706 10.442609060706 10.442609060706 10.442609060706 8.5244732337962 8.5244732337962 8.5244732337962 8.5244732337962 9.5642440635567 9.5642440635567 9.5642440635567 9.5642440635567 10.857913086723 10.857913086723 10.857913086723 10.857913086723 8.8719363991085 8.8719363991085 8.8719363991085 8.8719363991085 7.2324154496567 7.2324154496567 7.2324154496567 7.2324154496567 9.6304907794722 9.6304907794722 9.6304907794722 9.6304907794722 13.15571777971 13.15571777971 13.15571777971 13.15571777971 10.668133834333 10.668133834333 10.668133834333 10.668133834333 8.5307274827093 8.5307274827093 8.5307274827093 8.5307274827093 7421.8507352083 7421.8507352083 7421.8507352083 7421.8507352083 8.6177961665332 8.6177961665332 8.6177961665332 8.6177961665332 19.314329595989 19.314329595989 19.314329595989 19.314329595989 9.8036476786968 9.8036476786968 9.8036476786968 9.8036476786968 8.6723099993752 8.6723099993752 8.6723099993752 8.6723099993752 10.471062003092 10.471062003092 10.471062003092 10.471062003092 9.1175706505291 9.1175706505291 9.1175706505291 9.1175706505291 14.614087792371 14.614087792371 14.614087792371 14.614087792371 9.8827135367292 9.8827135367292 9.8827135367292 9.8827135367292 12.485652086405 12.485652086405 12.485652086405 12.485652086405 9.1085780997825 9.1085780997825 9.1085780997825 9.1085780997825 9.8290609536782 9.8290609536782 9.8290609536782 9.8290609536782 9.8573148566221 9.8573148566221 9.8573148566221 9.8573148566221 8.9682267425734 8.9682267425734 8.9682267425734 8.9682267425734 10.289493432457 10.289493432457 10.289493432457 10.289493432457 9.7196037272634 9.7196037272634 9.7196037272634 9.7196037272634 10.295190965082 10.295190965082 10.295190965082 10.295190965082 9.9755431184636 9.9755431184636 9.9755431184636 9.9755431184636 10.358485891121 10.358485891121 10.358485891121 10.358485891121 9.9634297088793 9.9634297088793 9.9634297088793 9.9634297088793 10.129641889941 10.129641889941 10.129641889941 10.129641889941 9.6327122300368 9.6327122300368 9.6327122300368 9.6327122300368 9.6348417680346 9.6348417680346 9.6348417680346 9.6348417680346 10.227396942525 10.227396942525 10.227396942525 10.227396942525 9.6360372960525 9.6360372960525 9.6360372960525 9.6360372960525 9.9261473791019 9.9261473791019 9.9261473791019 9.9261473791019 9.8383453310089 9.8383453310089 9.8383453310089 9.8383453310089 10.204004580234 10.204004580234 10.204004580234 10.204004580234 10.077117896165 10.077117896165 10.077117896165 10.077117896165 9.7447307228484 9.7447307228484 9.7447307228484 9.7447307228484 9.7730374914092 9.7730374914092 9.7730374914092 9.7730374914092 10.001654147337 10.001654147337 10.001654147337 10.001654147337 9.9233940046088 9.9233940046088 9.9233940046088 9.9233940046088 9.2210262736344 9.2210262736344 9.2210262736344 9.2210262736344 9.9514554275065 9.9514554275065 9.9514554275065 9.9514554275065 9.7943986579372 9.7943986579372 9.7943986579372 9.7943986579372 10.012124530279 10.012124530279 10.012124530279 10.012124530279 10.149676356574 10.149676356574 10.149676356574 10.149676356574 9.7740166270176 9.7740166270176 9.7740166270176 9.7740166270176 10.037997827507 10.037997827507 10.037997827507 10.037997827507 9.87571078746 9.87571078746 9.87571078746 9.87571078746 9.8928215875566 9.8928215875566 9.8928215875566 9.8928215875566 9.4992008068667 9.4992008068667 9.4992008068667 9.4992008068667 9.8535270266044 9.8535270266044 9.8535270266044 9.8535270266044 9.6649629162945 9.6649629162945 9.6649629162945 9.6649629162945 10.197056055646 10.197056055646 10.197056055646 10.197056055646 10.24033274747 10.24033274747 10.24033274747 10.24033274747 9.8537218540724 9.8537218540724 9.8537218540724 9.8537218540724 9.2830719802178 9.2830719802178 9.2830719802178 9.2830719802178 9.6520657345606 9.6520657345606 9.6520657345606 9.6520657345606 9.5041467273302 9.5041467273302 9.5041467273302 9.5041467273302 9.3020395740265 9.3020395740265 9.3020395740265 9.3020395740265 9.8535639056365 9.8535639056365 9.8535639056365 9.8535639056365 9.9591415311784 9.9591415311784 9.9591415311784 9.9591415311784 9.6263159467117 9.6263159467117 9.6263159467117 9.6263159467117 9.3937646736796 9.3937646736796 9.3937646736796 9.3937646736796 9.1277794317975 9.1277794317975 9.1277794317975 9.1277794317975 13.457637507821 13.457637507821 13.457637507821 13.457637507821 10.004065525632 10.004065525632 10.004065525632 10.004065525632 9.7142008481923 9.7142008481923 9.7142008481923 9.7142008481923 9.9666677305145 9.9666677305145 9.9666677305145 9.9666677305145 9.731340060692 9.731340060692 9.731340060692 9.731340060692 13.153709907199 13.153709907199 13.153709907199 13.153709907199 9.9314120005543 9.9314120005543 9.9314120005543 9.9314120005543 29.33117188804 29.33117188804 29.33117188804 29.33117188804 18.664773418689 18.664773418689 18.664773418689 18.664773418689 9.8307857229246 9.8307857229246 9.8307857229246 9.8307857229246 13.314183293884 13.314183293884 13.314183293884 13.314183293884 9.2033433347148 9.2033433347148 9.2033433347148 9.2033433347148 11.133919917678 11.133919917678 11.133919917678 11.133919917678 67.869428077369 67.869428077369 67.869428077369 67.869428077369 9.591984883114 9.591984883114 9.591984883114 9.591984883114 9.1876337074556 9.1876337074556 9.1876337074556 9.1876337074556 9.6717536138602 9.6717536138602 9.6717536138602 9.6717536138602 9.9080067423805 9.9080067423805 9.9080067423805 9.9080067423805 166.12066951965 166.12066951965 166.12066951965 166.12066951965 10.871555112241 10.871555112241 10.871555112241 10.871555112241 98.490159895479 98.490159895479 98.490159895479 98.490159895479 48.827939214201 48.827939214201 48.827939214201 48.827939214201 65.330758057261 65.330758057261 65.330758057261 65.330758057261 49.221274975149 49.221274975149 49.221274975149 49.221274975149 52.260772015929 52.260772015929 52.260772015929 52.260772015929 114.3216582607 114.3216582607 114.3216582607 114.3216582607 71.297250496826 71.297250496826 71.297250496826 71.297250496826 50.751239203383 50.751239203383 50.751239203383 50.751239203383 599.47105366448 599.47105366448 599.47105366448 599.47105366448 24.032336047447 24.032336047447 24.032336047447 24.032336047447 41.213815283724 41.213815283724 41.213815283724 41.213815283724 26.573418965919 26.573418965919 26.573418965919 26.573418965919 58.130973963068 58.130973963068 58.130973963068 58.130973963068 100.25162659083 100.25162659083 100.25162659083 100.25162659083 22.955226979159 22.955226979159 22.955226979159 22.955226979159 48.102536891562 48.102536891562 48.102536891562 48.102536891562 12.307249376233 12.307249376233 12.307249376233 12.307249376233 8.7260250413364 8.7260250413364 8.7260250413364 8.7260250413364 11.637004531252 11.637004531252 11.637004531252 11.637004531252 15.432876010965 15.432876010965 15.432876010965 15.432876010965 10.319615293574 10.319615293574 10.319615293574 10.319615293574 10.083884978035 10.083884978035 10.083884978035 10.083884978035 9.4934359724477 9.4934359724477 9.4934359724477 9.4934359724477 9.5264524075156 9.5264524075156 9.5264524075156 9.5264524075156 9.6337190889505 9.6337190889505 9.6337190889505 9.6337190889505 9.353717611901 9.353717611901 9.353717611901 9.353717611901 9.2982619911571 9.2982619911571 9.2982619911571 9.2982619911571 10.015504332663 10.015504332663 10.015504332663 10.015504332663 10.295747516694 10.295747516694 10.295747516694 10.295747516694 11.888008067825 11.888008067825 11.888008067825 11.888008067825 57.938777752559 57.938777752559 57.938777752559 57.938777752559 62.743040186341 62.743040186341 62.743040186341 62.743040186341 9.775363678308 9.775363678308 9.775363678308 9.775363678308 9.9248931929927 9.9248931929927 9.9248931929927 9.9248931929927 9.4772323628062 9.4772323628062 9.4772323628062 9.4772323628062 10.274182664284 10.274182664284 10.274182664284 10.274182664284 10.045534125437 10.045534125437 10.045534125437 10.045534125437 9.4183005756727 9.4183005756727 9.4183005756727 9.4183005756727 8.6954105109719 8.6954105109719 8.6954105109719 8.6954105109719 9.8359279830614 9.8359279830614 9.8359279830614 9.8359279830614 10.132357755126 10.132357755126 10.132357755126 10.132357755126 10.035934769357 10.035934769357 10.035934769357 10.035934769357 10.015104359111 10.015104359111 10.015104359111 10.015104359111 10.378038544038 10.378038544038 10.378038544038 10.378038544038 13.162962788474 13.162962788474 13.162962788474 13.162962788474 9.7116661856334 9.7116661856334 9.7116661856334 9.7116661856334 10.030781001803 10.030781001803 10.030781001803 10.030781001803 10.036279675863 10.036279675863 10.036279675863 10.036279675863 9.5980557698779 9.5980557698779 9.5980557698779 9.5980557698779 9.5131377738864 9.5131377738864 9.5131377738864 9.5131377738864 9.8655957738628 9.8655957738628 9.8655957738628 9.8655957738628 9.9404069720584 9.9404069720584 9.9404069720584 9.9404069720584 10.154611613178 10.154611613178 10.154611613178 10.154611613178 9.9315600354464 9.9315600354464 9.9315600354464 9.9315600354464 10.500282617558 10.500282617558 10.500282617558 10.500282617558 10.093018007031 10.093018007031 10.093018007031 10.093018007031 9.2614305283802 9.2614305283802 9.2614305283802 9.2614305283802 9.1050655092434 9.1050655092434 9.1050655092434 9.1050655092434 9.847313607327 9.847313607327 9.847313607327 9.847313607327 10.109979129316 10.109979129316 10.109979129316 10.109979129316 9.7291293782257 9.7291293782257 9.7291293782257 9.7291293782257 10.644434420047 10.644434420047 10.644434420047 10.644434420047 13.065347427734 13.065347427734 13.420135173732 13.065347427734 10.467417535987 10.467417535987 10.467417535987 10.467417535987 14.595929761709 14.570891704695 14.545853647681 14.570891704695 9.2117562662755 9.2117562662755 9.2117562662755 9.2117562662755 99.732867680947 99.732867680947 99.732867680947 99.732867680947 23.63949150569 23.63949150569 23.63949150569 23.63949150569 56.887454470571 56.887454470571 56.887454470571 56.887454470571 89.011907617494 89.011907617494 89.011907617494 89.011907617494 43.436021226286 43.436021226286 43.436021226286 43.436021226286 86.145665116533 86.145665116533 86.145665116533 86.145665116533 87.010851664973 87.010851664973 87.010851664973 87.010851664973 139.24822326246 139.24822326246 139.24822326246 139.24822326246 92.833534212074 92.833534212074 92.833534212074 92.833534212074 109.07740725758 109.07740725758 109.07740725758 109.07740725758 129.86071747367 129.86071747367 129.86071747367 129.86071747367 198.63469260117 198.63469260117 198.63469260117 198.63469260117 77.252878080463 77.252878080463 77.252878080463 77.252878080463 60.895681362539 60.895681362539 60.895681362539 60.895681362539 11.418649168102 11.418649168102 11.418649168102 11.418649168102 27.381396239846 27.381396239846 27.381396239846 27.381396239846 7.9927622668637 7.9927622668637 7.9927622668637 7.9927622668637 7.630310889699 7.630310889699 7.630310889699 7.630310889699 11.336815168492 11.336815168492 11.336815168492 11.336815168492 9.7556621118993 9.7556621118993 9.7556621118993 9.7556621118993 9.3808060358512 9.3808060358512 9.3808060358512 9.3808060358512 9.0497739083924 9.0497739083924 9.0497739083924 9.0497739083924 9.6236015457121 9.6236015457121 9.6236015457121 9.6236015457121 9.2230579009594 9.2230579009594 9.2230579009594 9.2230579009594 9.3027450636999 9.3027450636999 9.3027450636999 9.3027450636999 8.8855134721253 8.8855134721253 8.8855134721253 8.8855134721253 8.8109832055014 8.8109832055014 8.8109832055014 8.8109832055014 9.9511859641438 9.9511859641438 9.9511859641438 9.9511859641438 7.6199834750665 7.6199834750665 7.6199834750665 7.6199834750665 9.1942544148406 9.1942544148406 9.1942544148406 9.1942544148406 7390.2179331455 7390.2179331455 7390.2179331455 7390.2179331455 64.841832325742 64.841832325742 64.841832325742 64.841832325742 9.9875693333569 9.9875693333569 9.9875693333569 9.9875693333569 9.4587977457892 9.4587977457892 9.4587977457892 9.4587977457892 10.181123244817 10.181123244817 10.181123244817 10.181123244817 10.283122257232 10.283122257232 10.283122257232 10.283122257232 10.151957881477 10.151957881477 10.151957881477 10.151957881477 9.7087033749227 9.7087033749227 9.7087033749227 9.7087033749227 10.119425209684 10.119425209684 10.119425209684 10.119425209684 10.480472165086 10.480472165086 10.480472165086 10.480472165086 10.013073890249 10.013073890249 10.013073890249 10.013073890249 11.033163336715 11.033163336715 11.033163336715 11.033163336715 10.436750599453 10.436750599453 10.436750599453 10.436750599453 10.65457729318 10.65457729318 10.65457729318 10.65457729318 10.303176700458 10.303176700458 10.303176700458 10.303176700458 10.432533953821 10.432533953821 10.432533953821 10.432533953821 10.473797032494 10.473797032494 10.473797032494 10.473797032494 11.059422789652 11.059422789652 11.059422789652 11.059422789652 9.3481093815689 9.3481093815689 9.3481093815689 9.3481093815689 11.068033090225 11.068033090225 11.068033090225 11.068033090225 10.026653038633 10.026653038633 10.026653038633 10.026653038633 9.9653958604347 9.9653958604347 9.9653958604347 9.9653958604347 10.181315629506 10.181315629506 10.181315629506 10.181315629506 9.6184004019581 9.6184004019581 9.6184004019581 9.6184004019581 9.2536547450774 9.2536547450774 9.2536547450774 9.2536547450774 9.3715254423825 9.3715254423825 9.3715254423825 9.3715254423825 9.3962095892413 9.8274965162303 10.258783443222 9.8274965162303 9.0503234753803 9.0503234753803 9.0503234753803 9.0503234753803 9.2066214222745 9.2066214222745 9.2066214222745 9.2066214222745 10.125725545338 10.125725545338 10.125725545338 10.125725545338 10.031973247062 10.031973247062 10.031973247062 10.031973247062 9.8101398221046 9.8101398221046 9.8101398221046 9.8101398221046 10.935980512291 10.935980512291 10.935980512291 10.935980512291 10.114564242717 10.114564242717 10.114564242717 10.114564242717 9.4287543822387 9.4287543822387 9.4287543822387 9.4287543822387 297.83657717714 297.83657717714 297.83657717714 297.83657717714 10.510181189634 10.510181189634 10.510181189634 10.510181189634 349.35453841885 349.35453841885 349.35453841885 349.35453841885 8.9476012650962 8.9476012650962 8.9476012650962 8.9476012650962 9.6214813248564 9.6214813248564 9.6214813248564 9.6214813248564 10.309248605911 10.436657129724 10.181840082098 10.309248605911 11.637752935891 11.886847576561 11.388658295223 11.637752935891 12.552388840877 12.552388840877 12.552388840877 12.552388840877 10.086987148606 10.086987148606 10.086987148606 10.086987148606 9.2277835476128 9.2277835476128 9.1477440383788 9.2277835476128 9.5672365049683 9.5672365049683 9.5672365049683 9.5672365049683 8.4993397821607 8.4993397821607 8.4993397821607 8.4993397821607 10.581220935631 10.581220935631 10.581220935631 10.581220935631 10.014414598308 10.014414598308 10.014414598308 10.014414598308 9.8393105187617 9.8393105187617 9.8393105187617 9.8393105187617 9.6816916356792 9.6816916356792 9.6816916356792 9.6816916356792 10.114322934862 10.114322934862 10.114322934862 10.114322934862 9.9050891800147 9.9050891800147 9.9050891800147 9.9050891800147 10.764648395456 10.764648395456 10.764648395456 10.764648395456 9.8854015975034 9.8854015975034 9.8854015975034 9.8854015975034 9.8425154441355 9.8425154441355 9.8425154441355 9.8425154441355 10.265407076778 10.265407076778 10.265407076778 10.265407076778 46.898305143552 46.898305143552 46.898305143552 46.898305143552 9.105500981365 9.105500981365 9.105500981365 9.105500981365 43.5779819145 43.5779819145 43.5779819145 43.5779819145 53.011671945092 53.011671945092 53.011671945092 53.011671945092 45.290316193403 45.290316193403 45.290316193403 45.290316193403 10.331745625821 10.331745625821 10.331745625821 10.331745625821 10.338513920864 10.338513920864 10.338513920864 10.338513920864 8.6469634842641 8.6469634842641 8.6469634842641 8.6469634842641 9.4644647122282 9.4644647122282 9.4644647122282 9.4644647122282 6.9276151752533 6.6683812856417 6.7979982304475 6.7979982304475 9.1874543248756 9.1874543248756 9.1874543248756 9.1874543248756 9.7617234398045 9.7617234398045 9.7617234398045 9.7617234398045 10.23980537742 10.23980537742 10.23980537742 10.23980537742 9.7578726625997 9.7578726625997 9.7578726625997 9.7578726625997 10.341166204386 10.341166204386 10.341166204386 10.341166204386 10.254476309829 10.254476309829 10.254476309829 10.254476309829 9.7698081885632 9.7698081885632 9.7698081885632 9.7698081885632 9.4686693267754 9.4686693267754 9.4686693267754 9.4686693267754 10.015502169101 10.015502169101 10.015502169101 10.015502169101 10.307536972813 10.307536972813 10.307536972813 10.307536972813 9.8780884400676 9.8780884400676 9.8780884400676 9.8780884400676 10.550490866022 10.550490866022 10.550490866022 10.550490866022 10.953465477087 10.953465477087 10.953465477087 10.953465477087 10.081356173516 10.081356173516 10.081356173516 10.081356173516 10.636418148801 10.636418148801 10.636418148801 10.636418148801 10.089578589236 10.089578589236 10.089578589236 10.