# vtk DataFile Version 3.0
d-2__ created by libgimli-v1.0.12
ASCII
DATASET UNSTRUCTURED_GRID
POINTS 4342 double
-20	0	0
-20	-30	0
51.5	-30	0
51.5	0	0
-2	-7	0
-2	0	0
33.6	0	0
33.6	-7	0
0	0	0
0.068195127841	-0.225484838968	0
0.5	0	0
0.493359789753	-0.264184817102	0
1	0	0
0.978653518456	-0.2698035348	0
1.5	0	0
1.462803746323	-0.291842321876	0
2	0	0
1.96187149468	-0.317745889902	0
2.5	0	0
2.470836604999	-0.314879057101	0
3	0	0
2.967850647147	-0.300930188999	0
3.5	0	0
3.456745196253	-0.316167616233	0
4	0	0
3.965627577756	-0.341870612017	0
4.5	0	0
4.482793578166	-0.336911914152	0
5	0	0
4.99982216761	-0.351338731849	0
5.5	0	0
5.533718383736	-0.337150178567	0
6	0	0
6.039934199293	-0.273262310442	0
6.5	0	0
6.50753495135	-0.243326221871	0
7	0	0
6.970844859461	-0.244128506401	0
7.5	0	0
7.438920596305	-0.275165909436	0
8	0	0
7.948313487405	-0.335108040951	0
8.5	0	0
8.497398944477	-0.336131555819	0
9	0	0
9.013571777028	-0.280876828023	0
9.5	0	0
9.487471023649	-0.259553672643	0
10	0	0
9.959618542405	-0.273126880847	0
10.5	0	0
10.447920241056	-0.324073793654	0
11	0	0
10.990140406636	-0.366809909297	0
11.5	0	0
11.532968399769	-0.32582065777	0
12	0	0
12.0169196916	-0.279853659272	0
12.5	0	0
12.498631448005	-0.299941094784	0
13	0	0
13.002828594912	-0.309221015773	0
13.5	0	0
13.515985440241	-0.305903150774	0
14	0	0
14.020606423288	-0.293235303412	0
14.5	0	0
14.507909565491	-0.277106292711	0
15	0	0
15.011571217884	-0.33374199391	0
15.5	0	0
15.53161971491	-0.329399270944	0
16	0	0
16.025831451594	-0.265843086165	0
16.5	0	0
16.515315929302	-0.27537588167	0
17	0	0
17.013074852852	-0.269667757784	0
17.5	0	0
17.493973284707	-0.248065778133	0
18	0	0
17.979648834769	-0.294771403393	0
18.5	0	0
18.492962994422	-0.306175165284	0
19	0	0
18.99687741751	-0.275727757415	0
19.5	0	0
19.493446449375	-0.304373277944	0
20	0	0
20.002706685316	-0.307618495426	0
20.5	0	0
20.503261642298	-0.287628142167	0
21	0	0
21.002012158445	-0.295511351629	0
21.5	0	0
21.506569376098	-0.294936276687	0
22	0	0
22.009599461827	-0.290142975641	0
22.5	0	0
22.500914536731	-0.279893121071	0
23	0	0
22.983365112671	-0.29046140675	0
23.5	0	0
23.493514604153	-0.323994407124	0
24	0	0
24.019943694583	-0.314348281813	0
24.5	0	0
24.536268190578	-0.29299189983	0
25	0	0
25.034541375235	-0.26775652159	0
25.5	0	0
25.506942468956	-0.243147486825	0
26	0	0
25.989291680779	-0.284490224093	0
26.5	0	0
26.498985082838	-0.291871247752	0
27	0	0
26.997758628174	-0.257666669362	0
27.5	0	0
27.488398918042	-0.273057708734	0
28	0	0
27.989035435783	-0.269482109784	0
28.5	0	0
28.47410097551	-0.253231958892	0
29	0	0
28.960296739504	-0.301134741682	0
29.5	0	0
29.471110240913	-0.308082126959	0
30	0	0
29.96934722637	-0.273499681987	0
30.5	0	0
30.455981472689	-0.307606148961	0
31	0	0
30.983268775024	-0.330289124946	0
31.5	0	0
31.450412392441	-0.265554263218	0
15.8	-7	0
0.25	0	0
1.25	0	0
2.25	0	0
1.75	0	0
0.75	0	0
3.25	0	0
4.25	0	0
3.75	0	0
5.25	0	0
6.25	0	0
6.75	0	0
5.75	0	0
4.75	0	0
2.75	0	0
7.75	0	0
8.75	0	0
8.25	0	0
9.75	0	0
10.75	0	0
10.25	0	0
9.25	0	0
11.75	0	0
12.75	0	0
12.25	0	0
13.75	0	0
14.75	0	0
15.25	0	0
14.25	0	0
13.25	0	0
11.25	0	0
7.25	0	0
-1	0	0
15.75	0	0
16.25	0	0
17.25	0	0
16.75	0	0
18.25	0	0
19.25	0	0
18.75	0	0
17.75	0	0
20.25	0	0
21.25	0	0
20.75	0	0
22.25	0	0
23.25	0	0
23.75	0	0
22.75	0	0
21.75	0	0
19.75	0	0
24.75	0	0
25.75	0	0
25.25	0	0
26.75	0	0
26.25	0	0
27.75	0	0
28.75	0	0
28.25	0	0
29.75	0	0
30.75	0	0
31.25	0	0
30.25	0	0
29.25	0	0
27.25	0	0
24.25	0	0
32.55	0	0
-0.5	0	0
32.025	0	0
-0.25	0	0
31.7625	0	0
-2	-4	0
31.835901025273	-0.427046891014	0
0.900674811671	-1.876708820721	0
33.6	-4	0
13.271690472986	-0.703714799512	0
15.321591460324	-1.051976945826	0
11.602650011005	-1.571532727251	0
14.691026276658	-1.748824289584	0
12.733564571256	-0.854103551119	0
18.190753612639	-0.911242095622	0
9.673038192772	-0.660467081096	0
21.262569411796	-0.747251246439	0
0.722120548393	-0.694560047937	0
30.604987474821	-0.903922547543	0
2.693893271428	-0.784730982972	0
20.275996294671	-0.671614680786	0
12.072427039469	-1.821973363339	0
3.610518407051	-0.879127188996	0
16.796331628465	-0.79048149302	0
15.861997191815	-0.654366323765	0
14.719486938331	-0.677725042659	0
5.279787546287	-0.97799130664	0
17.641865429878	-1.612259273765	0
19.189406134246	-1.842175088708	0
11.374556218505	-0.956546728628	0
10.576829977181	-0.960737901457	0
6.9	-7	0
13.816669652628	-0.834360576179	0
12.237349850923	-0.655609573108	0
17.679099571584	-0.598202855681	0
19.745145507322	-0.889299457349	0
18.78248135757	-0.66172009125	0
1.604552414045	-1.435115027298	0
20.741353428325	-0.738059741793	0
4.704832243049	-0.804031349489	0
19.559729918393	-1.44683136183	0
7.526445180095	-0.764717243558	0
13.862320381017	-1.597410498364	0
1.173058059017	-0.637597956142	0
30.132418067197	-0.648149633644	0
2.173697601257	-0.799403140856	0
17.285573608393	-0.573901790687	0
11.849924784975	-0.676960026723	0
19.208239456464	-0.657769735607	0
16.096992753457	-1.718240633184	0
16.271723340804	-0.601785333678	0
14.303490016504	-0.634691305279	0
29.142441020486	-0.931333811815	0
28.633565099536	-0.61727124567	0
24.7	-7	0
28.235464378097	-0.585969534677	0
12.747183340975	-1.628414470878	0
29.72442818551	-0.65292833312	0
1.627057737369	-0.817034303056	0
16.158850260907	-1.023169919983	0
4.211436092062	-0.858200070284	0
3.155012201953	-0.689142571764	0
10.110346257417	-0.667495171698	0
8.178016393245	-0.967893804821	0
13.28921789279	-1.213875707162	0
14.45246964673	-1.090839019191	0
12.088208799102	-1.166489936005	0
17.444991906948	-0.963444511731	0
19.02237790952	-1.157992038048	0
29.905706470821	-1.105530675968	0
10.239835635289	-1.664085153354	0
26.21686823091	-0.87141368893	0
20.386155652795	-1.13492336431	0
30.366941733345	-1.675372304829	0
3.487783322958	-1.487769739217	0
16.603886885734	-1.322979979284	0
23.789177054379	-0.886688042588	0
8.844355900737	-0.767780085824	0
1.075807504402	-1.113893091134	0
2.351875488374	-1.437347013671	0
16.576517057596	-2.454332184037	0
17.075662912709	-1.295453134267	0
5.918756024465	-0.754265638156	0
4.553358501483	-1.491848027641	0
3.047469980589	-1.163191306693	0
2.987939125304	-1.69853827741	0
9.267575722075	-0.602017946055	0
9.895745409323	-1.118746083283	0
7.128824961732	-0.58022205612	0
10.983328443111	-1.626377239442	0
19.470279450037	-2.47326600652	0
20.009654705086	-1.433663713056	0
29.460657258674	-1.826163128913	0
21.772055324526	-0.73081091476	0
21.017433341488	-1.290893922016	0
27.725431254112	-0.774977176535	0
25.704555548305	-0.583980534948	0
26.790807935653	-0.628931568017	0
24.878744679242	-0.772111192019	0
24.323585353531	-0.695117933399	0
23.164800558462	-0.774893668438	0
0.185160469045	-0.659137970394	0
1.939134814237	-1.122371505959	0
16.890242240539	-1.789762752052	0
6.321245684551	-0.575559103467	0
3.954934801022	-1.29112582971	0
2.637692690758	-2.249195255703	0
9.320997011142	-1.040928630294	0
9.457022769721	-1.717758399588	0
6.722258243383	-0.60813207611	0
7.481926251793	-1.419117536707	0
11.497460702727	-2.284434605451	0
19.829759175948	-1.912068331525	0
28.625779439619	-1.630466376092	0
22.28854504428	-0.724399409345	0
21.535950085328	-1.131995635762	0
21.598333691227	-1.695237788577	0
22.030273589692	-1.194749179182	0
22.694307907479	-1.1959748793	0
20.526044493887	-1.785870412764	0
27.207217375958	-0.609705156225	0
25.322539268683	-0.564576016462	0
25.763984029655	-1.518613997943	0
24.396161660299	-1.208227010601	0
-0.26894740421	-0.429406285601	0
17.345032625066	-2.33820504976	0
3.91434851883	-1.735317175855	0
3.419530732652	-2.149847717373	0
8.792409702143	-1.377417275437	0
6.987921395673	-1.00642931323	0
10.611504913818	-2.319937270056	0
28.355297386204	-1.016145332607	0
27.065174644814	-1.762205910783	0
22.726286442958	-0.653193938311	0
23.305387441738	-1.297062797142	0
20.222131052046	-2.491941443605	0
25.489866462023	-0.954940566006	0
25.055198625382	-1.417788070769	0
-2	-2	0
6.419945661702	-0.996034597924	0
6.652277701947	-1.666282635055	0
27.769327599874	-1.55827633781	0
27.034632575814	-1.11402168729	0
23.827690493425	-1.589512999872	0
23.05492631822	-2.036249223027	0
5.921776421872	-1.360876736826	0
14.104442353811	-2.945488055771	0
12.427598739348	-2.457265973553	0
1.737080667175	-2.239265268148	0
21.144957167782	-2.436422322809	0
19.770550953951	-3.264321222721	0
25.305113593485	-2.862218537249	0
4.876928418646	-2.268698221511	0
14.166065858927	-2.409908492947	0
25.298832357449	-2.165603319844	0
13.314976634337	-2.218825666594	0
14.972413421855	-2.451228448422	0
24.558354521604	-2.709787005761	0
26.322297320005	-2.524923472358	0
31.369578199461	-0.837502789296	0
31.01653653218	-1.429993840489	0
31.982117205673	-2.194901617992	0
30.879949226401	-3.091017221578	0
31.644850739508	-1.5337294296	0
31.093393159073	-2.203922874276	0
33.6	-2	0
31.644526375912	-2.916697774271	0
18.062376458446	-2.296856898368	0
17.082203239953	-3.968722264227	0
8.162401438183	-1.771139337224	0
11.714250171311	-3.667462978557	0
0.428214034136	-1.221719224824	0
5.333672604494	-1.737401820345	0
3.705784093732	-2.850447320337	0
29.15	-7	0
33.6	-1	0
33.6	-3	0
17.139909581447	-3.062018912588	0
16.225309466975	-3.330518343589	0
20.25	-7	0
7.394171501504	-2.331407546635	0
9.240077473086	-2.584628507442	0
8.658443861546	-3.283395178191	0
-0.68045259479	-1.771897682437	0
-0.331127594061	-1.118936517954	0
-0.785538605006	-0.572665242666	0
-1.399770453959	-0.576712717393	0
-2	-1	0
-1.213175978188	-1.310820546601	0
5.80754834242	-2.586801277051	0
-1.198787585143	-5.091250335548	0
2.288081096515	-3.192362482699	0
2.45	-7	0
28.198829813458	-2.247769369018	0
27.381700298008	-2.365779879107	0
30.19504486978	-3.489303944537	0
32.358064187932	-0.485282665819	0
32.048035476231	-0.97617219924	0
32.356222394445	-1.564534115118	0
32.96611255056	-0.499128120034	0
32.72200859817	-1.010938169902	0
33.002922420751	-1.541371690335	0
8.797452615506	-1.996528306028	0
8.340425013267	-2.529674176545	0
7.590896211687	-5.557101587954	0
10.065666128995	-2.907548005715	0
0.017681188064	-1.866317212543	0
[...]
CELL_DATA 8300
SCALARS _Attribute double 1
LOOKUP_TABLE default
8.7189030166298 8.7189030166298 8.7189030166298 8.7189030166298 11.471589644894 11.471589644894 11.471589644894 11.471589644894 9.8807547215427 9.8807547215427 9.8807547215427 9.8807547215427 10.239239654957 10.239239654957 10.239239654957 10.239239654957 10.068758221927 10.068758221927 10.068758221927 10.068758221927 9.9653995076264 9.9653995076264 9.9653995076264 9.9653995076264 9.9538275290343 9.9538275290343 9.9538275290343 9.9538275290343 9.993906990257 9.993906990257 9.993906990257 9.993906990257 10.079375855313 10.079375855313 10.079375855313 10.079375855313 9.9812280200894 9.9812280200894 9.9812280200894 9.9812280200894 10.004875453748 10.004875453748 10.004875453748 10.004875453748 10.03238004731 10.03238004731 10.03238004731 10.03238004731 9.9512090790824 9.9512090790824 9.9512090790824 9.9512090790824 9.9089464228889 9.9089464228889 9.9089464228889 9.9089464228889 10.155915593966 10.155915593966 10.155915593966 10.155915593966 9.9091529860115 9.9091529860115 9.9091529860115 9.9091529860115 10.15238955629 10.15238955629 10.15238955629 10.15238955629 9.8431138189536 9.8431138189536 9.8431138189536 9.8431138189536 9.8518202869426 9.8518202869426 9.8518202869426 9.8518202869426 10.101692945285 10.101692945285 10.101692945285 10.101692945285 10.131898619445 10.131898619445 10.131898619445 10.131898619445 9.9591410241366 9.9591410241366 9.9591410241366 9.9591410241366 10.02751009381 10.02751009381 10.02751009381 10.02751009381 9.5803814108094 9.5803814108094 9.5803814108094 9.5803814108094 9.7876636480686 9.7876636480686 9.7876636480686 9.7876636480686 9.9901643462319 9.9901643462319 9.9901643462319 9.9901643462319 38.873805239562 38.873805239562 38.873805239562 38.873805239562 10.08408475823 10.08408475823 10.08408475823 10.08408475823 114.73654759739 114.73654759739 114.73654759739 114.73654759739 10.116871952607 10.116871952607 10.116871952607 10.116871952607 53.136428154725 53.136428154725 53.136428154725 53.136428154725 10.119807584632 10.119807584632 10.119807584632 10.119807584632 9.9427292521257 9.9427292521257 9.9427292521257 9.9427292521257 29.938397600584 29.938397600584 29.938397600584 29.938397600584 9.9664724701494 9.9664724701494 9.9664724701494 9.9664724701494 9.9909578065049 9.9909578065049 9.9909578065049 9.9909578065049 10.258617711341 10.258617711341 10.258617711341 10.258617711341 10.016017148619 10.016017148619 10.016017148619 10.016017148619 10.259701250269 10.259701250269 10.259701250269 10.259701250269 9.589611623546 9.589611623546 9.589611623546 9.589611623546 10.362541317402 10.362541317402 10.362541317402 10.362541317402 9.9457577427925 9.9457577427925 9.9457577427925 9.9457577427925 9.9061880018176 9.9061880018176 9.9061880018176 9.9061880018176 10.40035512275 10.40035512275 10.40035512275 10.40035512275 9.8595475633833 9.8595475633833 9.8595475633833 9.8595475633833 10.216122441567 10.216122441567 10.216122441567 10.216122441567 10.28203203488 10.28203203488 10.28203203488 10.28203203488 9.3136707006754 9.3136707006754 9.3136707006754 9.3136707006754 10.743633571417 10.743633571417 10.743633571417 10.743633571417 9.954000187495 9.954000187495 9.954000187495 9.954000187495 9.5911822805704 9.5911822805704 9.5911822805704 9.5911822805704 10.481907034887 10.481907034887 10.481907034887 10.481907034887 10.294568462821 10.294568462821 10.294568462821 10.294568462821 20.571156867344 20.571156867344 20.571156867344 20.571156867344 10.601193223268 10.601193223268 10.601193223268 10.601193223268 9.2562880296655 9.2562880296655 9.2562880296655 9.2562880296655 11.428835018639 11.428835018639 11.428835018639 11.428835018639 3579.0972333032 3579.0972333032 3579.0972333032 3579.0972333032 8.7995506609678 8.7995506609678 8.7995506609678 8.7995506609678 10.824338600746 10.824338600746 10.824338600746 10.824338600746 10.402797382426 10.402797382426 10.402797382426 10.402797382426 10.856247617717 10.856247617717 10.856247617717 10.856247617717 9.7543775560984 9.7543775560984 9.7543775560984 9.7543775560984 10.239156435024 10.239156435024 10.239156435024 10.239156435024 7.7439683910611 7.7269978111091 7.7609389710131 7.7439683910611 9.9809357822334 9.9809357822334 9.9809357822334 9.9809357822334 79.467644115443 79.467644115443 79.467644115443 79.467644115443 9.1722410685328 9.1722410685328 9.1722410685328 9.1722410685328 9.9142119665462 9.9142119665462 9.9142119665462 9.9142119665462 9.9179578155464 9.9179578155464 9.9179578155464 9.9179578155464 9.4484631530529 9.4484631530529 9.4484631530529 9.4484631530529 9.9290904869334 9.9290904869334 9.9290904869334 9.9290904869334 10.009125250731 10.009125250731 10.009125250731 10.009125250731 10.023057626492 10.023057626492 10.023057626492 10.023057626492 9.9479953539546 9.9479953539546 9.9479953539546 9.9479953539546 10.032917907116 10.032917907116 10.032917907116 10.032917907116 10.021152283235 10.021152283235 10.021152283235 10.021152283235 10.023246815023 10.023246815023 10.023246815023 10.023246815023 9.9547117243025 9.9547117243025 9.9547117243025 9.9547117243025 9.983160465307 9.983160465307 9.983160465307 9.983160465307 10.112056731389 10.112056731389 10.112056731389 10.112056731389 10.086918147304 10.086918147304 10.086918147304 10.086918147304 10.034135753291 10.034135753291 10.034135753291 10.034135753291 10.0334127905 10.0334127905 10.0334127905 10.0334127905 10.123295361625 10.123295361625 10.123295361625 10.123295361625 10.052210167182 10.052210167182 10.052210167182 10.052210167182 10.06258581442 10.06258581442 10.06258581442 10.06258581442 10.01844087056 10.01844087056 10.01844087056 10.01844087056 10.010814200308 10.010814200308 10.010814200308 10.010814200308 10.104924044405 10.104924044405 10.104924044405 10.104924044405 10.11141325144 10.11141325144 10.11141325144 10.11141325144 10.056052063259 10.056052063259 10.056052063259 10.056052063259 10.079612251896 10.079612251896 10.079612251896 10.079612251896 10.088171196349 10.088171196349 10.088171196349 10.088171196349 10.025201025861 10.025201025861 10.025201025861 10.025201025861 10.052686990196 10.052686990196 10.052686990196 10.052686990196 10.057277227893 10.057277227893 10.057277227893 10.057277227893 10.097851574103 10.097851574103 10.097851574103 10.097851574103 9.9851384366312 9.9851384366312 9.9851384366312 9.9851384366312 10.175641805183 10.175641805183 10.175641805183 10.175641805183 10.062258380818 10.062258380818 10.062258380818 10.062258380818 10.188396839519 10.188396839519 10.188396839519 10.188396839519 10.138283393735 10.138283393735 10.138283393735 10.138283393735 10.043439720724 10.043439720724 10.043439720724 10.043439720724 10.330966798545 10.330966798545 10.330966798545 10.330966798545 10.173881949326 10.173881949326 10.173881949326 10.173881949326 10.165826202545 10.165826202545 10.165826202545 10.165826202545 10.460443917067 10.460443917067 10.460443917067 10.460443917067 10.216547855197 10.216547855197 10.216547855197 10.216547855197 10.161765496025 10.161765496025 10.161765496025 10.161765496025 10.036314792736 10.036314792736 10.036314792736 10.036314792736 10.163647320361 10.163647320361 10.163647320361 10.163647320361 9.9160634386954 9.9160634386954 9.9160634386954 9.9160634386954 10.195727292628 10.195727292628 10.195727292628 10.195727292628 7.4909308751543 7.4909308751543 7.4909308751543 7.4909308751543 9.7012681100033 9.7012681100033 9.7012681100033 9.7012681100033 9.9053237295631 9.9053237295631 9.9053237295631 9.9053237295631 10.737267484875 10.737267484875 10.737267484875 10.737267484875 10.076972414655 10.076972414655 10.076972414655 10.076972414655 10.33059234081 10.33059234081 10.33059234081 10.33059234081 10.149036109172 10.149036109172 10.149036109172 10.149036109172 7.1708739700329 7.1708739700329 7.1708739700329 7.1708739700329 42.660107956884 42.660107956884 42.660107956884 42.660107956884 10.034389010379 10.034389010379 10.034389010379 10.034389010379 8.965437898431 8.965437898431 8.965437898431 8.965437898431 9.9322150519372 9.9322150519372 9.9322150519372 9.9322150519372 9.9878262659688 9.9878262659688 9.9878262659688 9.9878262659688 110.81865276236 110.81865276236 110.81865276236 110.81865276236 10.467349196402 10.467349196402 10.467349196402 10.467349196402 10.434333958391 10.434333958391 10.434333958391 10.434333958391 10.12113610483 10.12113610483 10.12113610483 10.12113610483 10.044293184196 10.044293184196 10.044293184196 10.044293184196 180.04531338631 180.04531338631 180.04531338631 180.04531338631 8.2962126621126 8.2962126621126 8.2962126621126 8.2962126621126 211.06328584016 211.06328584016 211.06328584016 211.06328584016 119.80807109454 119.80807109454 119.80807109454 119.80807109454 85.422137050186 85.422137050186 85.422137050186 85.422137050186 106.70724102182 106.70724102182 106.70724102182 106.70724102182 87.419609880185 87.419609880185 87.419609880185 87.419609880185 106.30423355052 106.30423355052 106.30423355052 106.30423355052 84.478955343988 84.478955343988 84.478955343988 84.478955343988 109.73216806328 109.73216806328 109.73216806328 109.73216806328 269.77633419254 269.77633419254 269.77633419254 269.77633419254 83.910257017248 83.910257017248 83.910257017248 83.910257017248 106.25477768044 106.25477768044 106.25477768044 106.25477768044 70.0141727567 70.0141727567 70.0141727567 70.0141727567 118.39870868343 118.39870868343 118.39870868343 118.39870868343 75.324930799551 75.324930799551 75.324930799551 75.324930799551 9.6817008336288 9.6817008336288 9.6817008336288 9.6817008336288 25.138502021143 25.138502021143 25.138502021143 25.138502021143 10.343240239108 10.343240239108 10.343240239108 10.343240239108 9.5803523942053 9.5803523942053 9.5803523942053 9.5803523942053 9.5516542312772 9.5516542312772 9.5516542312772 9.5516542312772 10.749268998212 10.749268998212 10.749268998212 10.749268998212 9.8587853661454 9.8587853661454 9.8587853661454 9.8587853661454 9.5850308623309 9.5850308623309 9.5850308623309 9.5850308623309 10.163047238619 10.163047238619 10.163047238619 10.163047238619 10.075403324212 10.075403324212 10.075403324212 10.075403324212 11.111103933951 11.111103933951 11.111103933951 11.111103933951 10.244150391304 10.244150391304 10.244150391304 10.244150391304 47.590696137859 47.590696137859 47.590696137859 47.590696137859 9.8193454202225 9.8193454202225 9.8193454202225 9.8193454202225 9.1591806589421 9.1591806589421 9.1591806589421 9.1591806589421 9.6021755826623 9.6021755826623 9.6021755826623 9.6021755826623 106.31259006686 106.31259006686 106.31259006686 106.31259006686 78.798461486409 78.798461486409 78.798461486409 78.798461486409 9.995638658324 9.995638658324 9.995638658324 9.995638658324 13.713334864759 13.713334864759 13.713334864759 13.713334864759 10.04927230589 10.04927230589 10.04927230589 10.04927230589 9.9126207233198 9.9126207233198 9.9126207233198 9.9126207233198 15.559360769387 15.559360769387 15.559360769387 15.559360769387 10.040201530699 10.040201530699 10.040201530699 10.040201530699 9.5301782974124 9.5301782974124 9.5301782974124 9.5301782974124 9.1671840436923 9.1655139932053 9.1623069256456 9.1655139932053 10.093752682361 10.093752682361 10.093752682361 10.093752682361 9.3402376582686 9.3402376582686 9.3402376582686 9.3402376582686 10.141655979157 10.141655979157 10.141655979157 10.141655979157 10.193809185267 10.193809185267 10.193809185267 10.193809185267 10.088045594912 10.088045594912 10.088045594912 10.088045594912 10.14230307391 10.14230307391 10.14230307391 10.14230307391 10.172204257786 10.172204257786 10.172204257786 10.172204257786 9.9253220724158 9.9253220724158 9.9253220724158 9.9253220724158 10.128020886237 10.128020886237 10.128020886237 10.128020886237 10.136846190212 10.136846190212 10.136846190212 10.136846190212 9.9456400588436 9.9456400588436 9.9456400588436 9.9456400588436 10.195361135493 10.195361135493 10.195361135493 10.195361135493 9.8807544125422 9.8807544125422 9.8807544125422 9.8807544125422 10.101949623649 10.101949623649 10.101949623649 10.101949623649 10.056589580636 10.056589580636 10.056589580636 10.056589580636 10.154461112022 10.154461112022 10.154461112022 10.154461112022 10.143610196768 10.143610196768 10.143610196768 10.143610196768 10.139789356991 10.139789356991 10.139789356991 10.139789356991 9.9337604748482 9.9337604748482 9.9337604748482 9.9337604748482 9.7543631482003 9.7543631482003 9.7543631482003 9.7543631482003 9.9324677637489 9.9324677637489 9.9324677637489 9.9324677637489 10.007056784871 10.007056784871 10.007056784871 10.007056784871 8.9363660043102 8.9162611291525 8.9564708794679 8.9363660043102 10.171518580305 10.171518580305 10.171518580305 10.171518580305 8.8157165042613 8.8157165042613 8.8157165042613 8.8157165042613 10.138827331653 10.138827331653 10.138827331653 10.138827331653 347.01773022274 347.01773022274 347.01773022274 347.01773022274 70.310604093279 70.310604093279 70.310604093279 70.310604093279 84.13000486085 84.13000486085 84.13000486085 84.13000486085 74.993653549957 74.993653549957 74.993653549957 74.993653549957 88.915838706144 88.915838706144 88.915838706144 88.915838706144 89.209704083218 89.209704083218 89.209704083218 89.209704083218 94.944805511046 94.944805511046 94.944805511046 94.944805511046 104.77279873382 104.77279873382 104.77279873382 104.77279873382 87.450983952039 87.450983952039 87.450983952039 87.450983952039 337.45173053843 337.45173053843 337.45173053843 337.45173053843 191.80703680253 191.80703680253 191.80703680253 191.80703680253 151.24551655435 151.24551655435 151.24551655435 151.24551655435 83.434637318242 83.434637318242 83.434637318242 83.434637318242 94.929840731985 94.929840731985 94.929840731985 94.929840731985 9.3220155414923 9.3220155414923 9.3220155414923 9.3220155414923 20.592697308503 20.592697308503 20.592697308503 20.592697308503 10.618307020626 10.618307020626 10.618307020626 10.618307020626 10.737674283078 10.737674283078 10.737674283078 10.737674283078 10.565495735894 10.565495735894 10.565495735894 10.565495735894 10.376742972007 10.376742972007 10.376742972007 10.376742972007 10.056627645071 10.056627645071 10.056627645071 10.056627645071 9.8280274647238 9.8280274647238 9.8280274647238 9.8280274647238 9.8673005416505 9.8673005416505 9.8673005416505 9.8673005416505 9.9908192838826 9.9908192838826 9.9908192838826 9.9908192838826 10.288792087717 10.288792087717 10.288792087717 10.288792087717 10.170026476142 10.170026476142 10.170026476142 10.170026476142 10.079436924426 10.079436924426 10.079436924426 10.079436924426 10.146415588786 10.146415588786 10.146415588786 10.146415588786 10.376994995722 10.376994995722 10.376994995722 10.376994995722 9.8928486780489 9.8928486780489 9.8928486780489 9.8928486780489 6337.2337289388 6337.2337289388 6337.2337289388 6337.2337289388 82.263643351694 82.263643351694 82.263643351694 82.263643351694 10.194330188622 10.194330188622 10.194330188622 10.194330188622 10.456386650927 10.456386650927 10.456386650927 10.456386650927 10.098813330735 10.098813330735 10.098813330735 10.098813330735 10.325543275955 10.325543275955 10.325543275955 10.325543275955 10.365656650161 10.365656650161 10.365656650161 10.365656650161 10.191939878611 10.191939878611 10.191939878611 10.191939878611 10.040446246257 10.040446246257 10.040446246257 10.040446246257 10.220689845583 10.220689845583 10.220689845583 10.220689845583 10.018542431293 10.018542431293 10.018542431293 10.018542431293 10.041913589533 10.041913589533 10.041913589533 10.041913589533 10.071356794928 10.071356794928 10.071356794928 10.071356794928 10.047851865338 10.047851865338 10.047851865338 10.047851865338 10.207371547198 10.207371547198 10.207371547198 10.207371547198 10.106949134312 10.106949134312 10.106949134312 10.106949134312 9.8920882104892 9.8920882104892 9.8920882104892 9.8920882104892 9.9286771425652 9.9286771425652 9.9286771425652 9.9286771425652 10.207661540368 10.207661540368 10.207661540368 10.207661540368 9.8841435451675 9.8841435451675 9.8841435451675 9.8841435451675 9.9023039567524 9.9023039567524 9.9023039567524 9.9023039567524 9.9680207526065 9.9680207526065 9.9680207526065 9.9680207526065 9.975256775209 9.975256775209 9.975256775209 9.975256775209 9.876988244711 9.876988244711 9.876988244711 9.876988244711 10.223976719829 10.223976719829 10.223976719829 10.223976719829 10.062346138591 10.062346138591 10.062346138591 10.062346138591 8.9805223256005 8.9805223256005 8.9805223256005 8.9805223256005 9.6476196075233 9.6476196075233 9.6476196075233 9.6476196075233 10.197317400837 10.197317400837 10.197317400837 10.197317400837 10.045966601597 10.045966601597 10.045966601597 10.045966601597 9.9239471777321 9.9239471777321 9.9239471777321 9.9239471777321 9.9003778139987 9.9003778139987 9.9003778139987 9.9003778139987 9.968438556408 9.968438556408 9.968438556408 9.968438556408 10.048056176826 10.048056176826 10.048056176826 10.048056176826 10.438538364177 10.438538364177 10.438538364177 10.438538364177 263.56831884723 263.56831884723 263.56831884723 263.56831884723 9.7128957780085 9.7128957780085 9.7128957780085 9.7128957780085 193.24812091392 193.24812091392 193.24812091392 193.24812091392 9.7958494683293 9.7958494683293 9.7958494683293 9.7958494683293 9.9946667452848 9.9946667452848 9.9946667452848 9.9946667452848 10.044843536149 10.044843536149 10.044843536149 10.044843536149 8.7189030166298 8.7189030166298 8.7189030166298 8.7189030166298 10.016133550791 10.016133550791 10.016133550791 10.016133550791 10.205083296593 10.205083296593 10.205083296593 10.205083296593 8.8207500832309 8.8207500832309 8.8207500832309 8.8207500832309 10.118858671101 10.118858671101 10.118858671101 10.118858671101 66.555149898973 66.555149898973 66.555149898973 66.555149898973 10.035457293871 10.035457293871 10.035457293871 10.035457293871 9.5067037960281 9.5067037960281 9.5067037960281 9.5067037960281 12.108495984831 12.108495984831 12.108495984831 12.108495984831 9.8971255509093 9.8971255509093 9.8971255509093 9.8971255509093 16.301637749956 16.301637749956 16.301637749956 16.301637749956 13.41996756914 13.41996756914 13.41996756914 13.41996756914 9.8880826443324 9.8880826443324 9.8880826443324 9.8880826443324 10.116790094138 10.116790094138 10.116790094138 10.116790094138 9.9624049941146 9.9624049941146 9.9624049941146 9.9624049941146 9.8597597943322 9.8597597943322 9.8597597943322 9.8597597943322 9.9514067672201 9.9514067672201 9.9514067672201 9.9514067672201 10.419251564048 10.419251564048 10.419251564048 10.419251564048 9.9344348972981 9.9344348972981 9.9344348972981 9.9344348972981 88.249223371172 88.249223371172 88.249223371172 88.249223371172 9.7568585241417 9.7568585241417 9.7568585241417 9.7568585241417 9.7081609244185 9.7081609244185 9.7081609244185 9.7081609244185 10.008586686551 10.008586686551 10.008586686551 10.008586686551 11.748053699545 11.748053699545 11.748053699545 11.748053699545 10.036091603359 10.036091603359 10.036091603359 10.036091603359 9.9742851264791 9.9742851264791 9.9742851264791 9.9742851264791 9.943679204279 9.943679204279 9.943679204279 9.943679204279 9.9321480793262 9.9321480793262 9.9321480793262 9.9321480793262 10.002749890292 10.002749890292 10.002749890292 10.002749890292 10.095328543424 10.095328543424 10.095328543424 10.095328543424 11.056137990487 11.056137990487 11.056137990487 11.056137990487 9.9532452646086 9.9532452646086 9.9532452646086 9.9532452646086 11.515980124025 11.515980124025 11.515980124025 11.515980124025 9.85679498505 9.85679498505 9.85679498505 9.85679498505 8.5276157432197 8.5276157432197 8.5276157432197 8.5276157432197 26.912841767673 26.912841767673 26.912841767673 26.912841767673 74.214018234094 74.214018234094 74.214018234094 74.214018234094 112.92239786802 112.92239786802 112.92239786802 112.92239786802 47.037005174792 47.037005174792 47.037005174792 47.037005174792 73.863727177424 73.863727177424 73.863727177424 73.863727177424 9.8405039812217 9.8405039812217 9.8405039812217 9.8405039812217 13.607603615371 13.607603615371 13.607603615371 13.607603615371 12.320808361876 12.320808361