# vtk DataFile Version 3.0
d-2__ created by libgimli-v1.1.0
ASCII
DATASET UNSTRUCTURED_GRID
POINTS 570 double
14.5	0	0
14.25	0	0
14.386963504964	-0.201738469428	0
22.399299936458	-0.310870122736	0
22.129824335287	-0.229914148082	0
22.126320781198	-0.518791771445	0
8.472303742627	-0.591754876635	0
8.780507935475	-0.76092407121	0
8.82173151259	-0.349253271447	0
18.663262297679	-0.667179415955	0
18.934786529245	-0.453308328646	0
18.636898038907	-0.29588182328	0
4.016904362632	-0.85330676142	0
4.076038737616	-0.331410355179	0
3.713721571226	-0.470767763626	0
1.89953779852	-0.269343012166	0
1.633800503821	-0.203067612233	0
1.644492760828	-0.441295523531	0
4.368408037607	-0.250833874131	0
4.337474161742	-0.544420985055	0
4.67745607622	-0.378433532554	0
1.406172533733	-0.772361039307	0
1.913288206557	-1.218576310882	0
1.90687689783	-0.651895683444	0
2.5	0	0
2.25	0	0
2.347047126858	-0.185539804102	0
1.374000926997	-0.300418771701	0
1.25	0	0
1.114902662369	-0.201591505098	0
1.067401015567	-0.470108640981	0
5.75	0	0
5.699780065382	-0.324747799653	0
5.924584257371	-0.172748359932	0
0.883560935405	-0.231136840652	0
1	0	0
9	0	0
9.117836368049	-0.253904480787	0
2.625577516194	-0.346770599322	0
17.859079774019	-0.943547525024	0
17.535029634209	-1.703182852412	0
18.338018094476	-1.366069799339	0
19.932263871771	-0.826489183604	0
19.881635677668	-0.346204516721	0
19.622287080959	-0.573770479943	0
1.5	0	0
1.75	0	0
23.25	0	0
23	0	0
23.109690227386	-0.220340974338	0
2.75	0	0
2.142562771237	-0.172460438312	0
2	0	0
23.332392704446	-0.202507275941	0
23.5	0	0
19	0	0
18.75	0	0
18.888143078348	-0.195773419804	0
2.90152418742	-0.185685383897	0
7.612175045312	-0.180627982114	0
7.527150943175	-0.401430797998	0
7.881917737402	-0.30462800112	0
25.630635194756	-0.512020961038	0
25.243766894324	-0.80097755811	0
25.758031115142	-0.952821630144	0
3	0	0
28.84859809239	-0.201276387394	0
29	0	0
28.75	0	0
4	0	0
3.835807353334	-0.199536243303	0
3.106904732949	-0.178783649348	0
29.25	0	0
29.092446172194	-0.305987136665	0
13.5	0	0
13.667851890428	-0.185102765244	0
13.75	0	0
3.75	0	0
14.407363653886	-0.441423674912	0
14.125469935998	-0.279652141152	0
4.25	0	0
5.061980176718	-0.407989246181	0
5.335512032876	-0.269401530321	0
5.113979852892	-0.173834924157	0
11.882046000841	-0.812345557852	0
12.478640631525	-1.146569360669	0
12.244190771573	-0.565936619511	0
3.633270844505	-0.195395238442	0
14	0	0
18.378272976509	-0.514977451159	0
5.5	0	0
9.619519097921	-1.16461851757	0
10.030576753886	-1.587265312651	0
9.961661342999	-1.070235523667	0
5.25	0	0
5	0	0
13.157975569138	-0.830425793913	0
13.83833027638	-1.238601004239	0
13.671302359608	-0.710707966059	0
11.325917093147	-0.8366783502	0
11.612143285947	-0.506264798476	0
6	0	0
7	0	0
6.83842404292	-0.188923754932	0
7.11236984822	-0.391746146843	0
6.631875629497	-0.169178192832	0
6.75	0	0
3.21002197083	-0.595267231049	0
3.445510026908	-0.608065324465	0
3.362318141622	-0.306501255187	0
6.120159502895	-0.164221934939	0
4.538525595924	-0.906226152762	0
13.233775457127	-1.737244787017	0
4.5	0	0
16.138065841822	-0.472802517973	0
16.126746690205	-0.221608117926	0
15.859319180798	-0.326402762318	0
26.080401003391	-0.227842452866	0
26.25	0	0
26	0	0
3.019224421113	-0.401469974918	0
8.234901607028	-0.35771789179	0
8.518285578354	-0.242327591839	0
8.328777073389	-0.153008859619	0
7.25	0	0
7.400656881666	-0.195280611572	0
7.5	0	0
5.385509485898	-0.709154879541	0
5.948697127931	-0.745234910621	0
8.75	0	0
8.5	0	0
8.25	0	0
2.214249105773	-0.404278959534	0
2.896561357202	-0.792481120253	0
9.25	0	0
4.920911116561	-0.192028847294	0
9.651670336652	-0.200847798694	0
9.849824537955	-0.19917205686	0
9.75	0	0
10.095049354068	-0.315754204277	0
10	0	0
3.25	0	0
6.738406513564	-0.710129601907	0
7.121614580011	-0.943026074581	0
11.345829942703	-0.314788260019	0
11.25	0	0
11.104427225455	-0.188863495516	0
6.052412255932	-0.372556729023	0
6.373371846535	-0.274163514827	0
10.25	0	0
10.380281579003	-0.241092027437	0
10.5	0	0
10.75	0	0
10.909079077441	-0.189427130481	0
11	0	0
6.25	0	0
6.5	0	0
4.75	0	0
3.5	0	0
10.672815698565	-0.318467932684	0
10.772487906066	-0.787092734739	0
11.020900486567	-0.439266778492	0
8	0	0
7.75	0	0
11.5	0	0
11.619450354736	-0.231443672836	0
11.75	0	0
8.139317726831	-0.163309591658	0
12.25	0	0
12.158949464947	-0.235415698299	0
12.412455385193	-0.275030800337	0
12.929165084344	-0.221336108042	0
12.686337592177	-0.258437422252	0
12.900449535554	-0.462768612232	0
12.5	0	0
9.405755833308	-0.325979504745	0
9.111697192308	-0.594170467817	0
9.457257345083	-0.753685223931	0
18.101369157139	-0.618560521812	0
18.336839281097	-0.861122419318	0
10.385948631267	-0.570640149046	0
9.5	0	0
13.411260455969	-0.342646276848	0
12.643108055516	-0.590179775368	0
13.137744715761	-0.195204172124	0
13	0	0
21.25	0	0
21.358341816502	-0.326561417551	0
21.5	0	0
13.816492716597	-0.40394453634	0
20.25	0	0
20.423452336785	-0.313445603959	0
20.5	0	0
17.789350393153	-0.390447709085	0
17.987794057246	-0.401472255242	0
17.881276545163	-0.206424156589	0
19.564465692234	-0.270867872644	0
19.290725118801	-0.49926248604	0
16.392319441256	-0.29915360323	0
19.443730892406	-0.923508713428	0
20.457987075478	-0.803203365193	0
20.167450719332	-0.505159975143	0
0.103762538371	-0.253013629949	0
0.267057015134	-0.483604909932	0
0.374713194419	-0.2320817565	0
13.25	0	0
17.415572543912	-0.230682214253	0
17.5	0	0
17.25	0	0
18.108153655084	-0.208141099276	0
18.25	0	0
18	0	0
15.75	0	0
15.544586046819	-0.246453491997	0
15.122708481244	-0.193620038745	0
15.25	0	0
15	0	0
19.75	0	0
24.149237782749	-0.319013340846	0
23.842766599446	-0.577371105011	0
24.183995039967	-0.73159476451	0
13.871646321742	-0.17394291424	0
23.862588150518	-0.245417872715	0
16.84024277193	-0.203626765466	0
16.704049384397	-0.435508179396	0
17.112673188265	-0.38804641709	0
24.75	0	0
24.832880292394	-0.290571430318	0
25	0	0
16.40158555625	-0.755912194683	0
16.850299990829	-0.757941865332	0
17.75	0	0
23.567455674596	-0.325197491724	0
16.25	0	0
16	0	0
22.645812614293	-0.197864648876	0
22.75	0	0
22.5	0	0
16.75	0	0
17	0	0
24	0	0
26.914424714815	-0.337869958787	0
26.621963281699	-0.624626679172	0
26.977877660759	-0.778408201088	0
26.622424322919	-0.264588309935	0
19.34462271879	-0.199329831305	0
19.25	0	0
19.118057075065	-0.225686869553	0
19.5	0	0
26.75	0	0
27	0	0
27.5	0	0
27.604422363523	-0.298869962794	0
27.75	0	0
17.650384190064	-0.227839036584	0
18.343198956448	-0.236734208617	0
18.5	0	0
24.25	0	0
20.143897114391	-0.233773711865	0
25.5	0	0
25.25	0	0
25.344389320279	-0.31693710653	0
21.059546193318	-0.24845941382	0
20	0	0
25.842927934822	-0.248287716678	0
25.75	0	0
25.613904645132	-0.216025146631	0
21	0	0
11.763551406169	-1.481607093928	0
30.981104050195	-0.5526690913	0
30.873880294509	-0.217692518774	0
30.706626759758	-0.34945139905	0
20.75	0	0
20.85240828135	-0.178025243856	0
23.75	0	0
20.66289882074	-0.189089155251	0
30.204950808504	-0.791758966623	0
30.715535843381	-1.149995259266	0
30.543724897762	-0.572259098027	0
30	0	0
30.180216671806	-0.343473673313	0
30.25	0	0
23.229584388362	-0.458653998547	0
29.5	0	0
29.623391954444	-0.322069028408	0
29.75	0	0
21.618913855927	-0.233585823579	0
21.75	0	0
29.348490380579	-0.521100538161	0
29.36294710412	-0.230601226356	0
22	0	0
22.25	0	0
28.25	0	0
28	0	0
28.129259193923	-0.314252106503	0
28.44374413871	-0.484576386004	0
28.100199615755	-0.812038297775	0
28.649230646972	-0.871769248311	0
28.618403654115	-0.227691192115	0
28.5	0	0
28.387848605749	-0.205892081491	0
29.054768525933	-0.708603081552	0
29.344906532636	-0.846887322836	0
26.327430876245	-0.35930637997	0
10.349120516034	-1.04150119828	0
10.894920134778	-1.514321070539	0
24.59640839418	-0.191760546865	0
12.75	0	0
24.5	0	0
13.102881121377	-0.411296235356	0
25.099388239946	-0.214879887129	0
25.97986022697	-0.52841375324	0
24.398993403151	-0.196312410538	0
17.860840746535	-0.577367743328	0
17.566481510048	-0.529340016102	0
26.5	0	0
16.637148248735	-0.188015807345	0
18.183918302467	-0.396443618316	0
27.159348252167	-0.205297590358	0
27.357530053515	-0.198815038154	0
27.25	0	0
15.060354649709	-1.112587998155	0
15.51532665618	-1.043792149387	0
15.178150912169	-0.713100616689	0
10.051363365948	-0.719159376333	0
14.661248691948	-0.27865166374	0
14.75	0	0
27.868836823455	-0.217301839861	0
31	0	0
30.75	0	0
-0.020273477909	-1.415389842481	0
1.054972770973	-1.487485199502	0
0.512583677021	-1.0438154777	0
0.75	0	0
2.361419414365	-0.794513604096	0
29.890297721653	-0.2433406165	0
30.473599299501	-0.238575611274	0
30.5	0	0
30.660802173874	-0.161931182737	0
28.783812899585	-0.467926883932	0
4.937022539393	-0.72440615077	0
6.696914540879	-0.380672503721	0
7.434272221796	-0.695675918868	0
15.339606453815	-0.166204802571	0
15.281953315711	-0.388999642276	0
11.893544445085	-0.335972898148	0
12	0	0
9.753796445798	-0.478866225926	0
7.720012958977	-0.638314519759	0
21.871398197179	-0.313006985103	0
21.615176662754	-0.521922347305	0
21.856785525528	-0.665128848631	0
20.792152536902	-0.448319093295	0
21.109577821412	-0.527879642114	0
21.360297691811	-0.734200004244	0
15.547854961707	-0.580173571081	0
24.496861814148	-0.467031445896	0
25.067351422649	-0.463427753535	0
24.81263825963	-0.684738154192	0
22.865620821195	-0.218348593093	0
23.443705587002	-0.773171720633	0
27.277617447467	-0.489224417775	0
27.863714790534	-0.471681393437	0
26.239117668995	-0.863279739365	0
29.896797054636	-0.547765129844	0
29.612773839625	-0.699757135752	0
29.867172666547	-0.87444432816	0
29.610354212963	-1.521444655905	0
29.59548165142	-1.071765512911	0
29.115129171034	-1.220660174798	0
31.345359428525	-0.458952144926	0
31.144859415042	-0.241304201582	0
15.919565295974	-0.746550096707	0
16.063006820294	-1.289595303187	0
16.5	0	0
14.900855313538	-0.178071167744	0
14.161016743654	-0.72559708689	0
19.011498044983	-0.834202892304	0
16.760433281999	-1.263698818643	0
17.280361389946	-0.931704507314	0
-0.627742252535	-0.296285438777	0
-1	0	0
-1	-0.5	0
0.625738545692	-0.228405936136	0
0.5	0	0
3.313957665883	-0.865581185485	0
3.619156095452	-0.800599314657	0
[...]
CELL_DATA 986
SCALARS 100.00_2.12 double 1
LOOKUP_TABLE default
5.5500586063257 7.3637895197599 7.2557578667047 6.4579880468744 4.6695386638723 7.6087832696775 9.4784584660964 6.1817242599527 8.4193074552042 6.8043436947349 7.7326036239427 5.8413318619496 9.3062186681142 11.68986310597 8.6914826450002 6.1462671364799 3.4536300618043 7.8324991293711 6.6937128992514 6.1217175416008 8.1256477698995 9.1006831159833 6.1818644188444 7.4424093098171 30.829496921979 7.5811380021412 9.3899379512278 5.7318483608727 6.9493258637551 7.8811341541959 6.3240514509952 11.791861194164 6.8649498273852 13.685129361099 3.2572405627461 8.7007855538097 16.617937905189 8.9028484434673 4.2918880047701 3.3067228364134 5.7148636622806 4.0520540501862 9.0220542296786 3.6736473447825 11.658147936004 9.7690190196661 5.5488492687936 5.2692349686246 5.5032644205583 6.9983266865753 7.6551479132988 3.4293864841517 5.0913325770534 9.338192661025 6.7529949492396 5.5776119865733 3.5742213658526 20.804475559335 6.4245479536691 3.4438562522574 5.9777950022979 8.4682735284978 12.426341248972 6.8045203453638 23.668013471024 22.541000600761 6.5413673649467 7.1441621754194 8.5677099649581 10.907132579491 9.3159475810525 15.212692255319 16.70434201159 13.473023101092 8.7875608376509 7.1419663660279 16.096453535942 8.6468170582158 13.46492792515 13.609107435274 18.531013869833 4.2043003127247 10.384569390567 8.7976971835141 6.0876651731821 13.736484128282 10.313253930221 6.2813703419666 28.068745194751 21.65547387169 6.1370176197642 7.0850536703776 14.055667535468 13.449507689221 8.7050188628642 8.0359768523694 8.5338482345878 9.0743980526096 15.400148920755 9.1682597656262 19.459906342716 5.4892900365186 6.5886500017307 20.940745122631 4.7363231023795 3.5160465561124 8.9521259248668 6.8693408376101 7.1776360199692 9.16472065485 5.6703845407848 8.7021691917932 8.4031100065481 4.3844521734567 8.6666746882342 8.1399382600257 7.1342694020076 6.1868233299745 7.9792543608842 6.7037615230025 7.0783692664099 10.777137270065 8.4110756955266 6.2741312685805 6.9990255060061 11.529954313674 6.5901662211558 4.603539853634 6.915817984989 7.0436802911781 10.231090813236 6.9678290831311 23.874745864136 5.7446292982617 4.5826002401236 17.188944142771 5.8593104172474 18.487365935014 18.831299605371 7.8083823930677 6.9741424981937 6.8129792652643 7.5436212605194 16.510481288903 48.636289616844 27.76937355915 6.4361103253515 4.7969891356845 12.35402162587 6.1292067620493 6.1872422752898 6.2760664076672 6.0935192049037 5.5493421070228 19.131943127809 11.104486140049 11.594117008033 5.1689844818556 6.2114013466043 6.9947206574511 8.3595472907112 7.1677155247791 4.4137228483527 8.5813006248947 12.171785790784 4.9208049268307 4.14375091248 7.4126087668866 16.836346047495 11.609334962022 17.90666589878 5.1255600484839 4.6100192432094 4.4488450867601 7.6563874805608 14.285664078424 10.710161420945 6.9788935954358 7.9429293879904 9.3901041236483 7.2779482228586 9.3669917936899 8.9189757958367 5.5933577137933 6.6810314023948 7.4904295310144 10.97853998668 7.4193051439464 7.3884116236072 5.8788631723911 6.5360479908734 4.8539570832374 8.6139154075174 3.6058541472692 11.839376144819 7.2118607482742 3.998342413115 11.658355091224 10.280931216911 7.2700716356185 10.997266835664 8.0704809470665 4.5790962392889 6.5702049138083 8.1542124807369 5.5132664743548 6.0397684362114 13.646660021754 5.5459279281507 12.772210552319 7.1677305182371 12.908467772767 8.5020230041701 5.3382745547025 3.5847497788218 3.2891244690608 3.8295453913674 7.2740932669647 4.5241347021394 7.478096126331 8.3044627790651 6.4672165066485 16.462205951479 6.5778650079293 15.179257844898 8.7541533673972 8.1005973260092 15.802033017141 7.8736745854013 6.8950949672351 10.126798275019 4.4768067827702 6.3039222233569 6.8135845915083 13.069045975588 7.3040353598507 7.7434232436823 6.6292672779193 9.161481666853 8.1960260042125 4.8500472057598 5.1288804011097 8.5623170186502 10.264904400734 8.3923123217013 12.20053556659 3.2128761179769 8.9233967320787 10.399749215642 5.3972647751406 4.9187451866234 6.198065583172 6.2394807722879 8.2546992444395 10.048578225941 4.088954377206 6.423624476283 8.5800596533494 5.196083405182 6.3319411425426 10.520449889985 15.43405934815 7.3592664470244 8.336285418386 5.2766888140232 12.848247266733 8.1290475070987 7.015671821003 3.2713536080239 4.2951894909212 7.9388004302562 8.9123954423042 8.6418272257449 11.350188334513 16.429207846726 13.736979598783 6.020557342163 7.7091212874342 7.5933728914809 5.8396697216217 6.9970769195042 6.8804480669187 15.62618497986 11.580471218328 5.6308935512841 12.65358280825 7.623451250263 10.514357820889 10.423262444814 9.4692850826663 8.278065234358 6.8726629612424 6.2108606710833 6.4236034331683 7.7936704809588 15.02106001243 6.3552341434493 11.30660421563 27.573139021218 9.087688992198 4.3694465198579 9.5619385670637 7.8836863055383 8.4876235441272 4.5692558803809 6.3739192662716 11.7229569186 7.9480866638119 7.5810857885855 9.0003685689795 8.5797247190646 7.0066026366755 4.9251674233177 6.0465222844641 8.0675551157001 6.6098189995564 17.866389346989 6.6376241971411 5.6560093718096 7.7296120895099 9.5288229164484 10.583487051486 3.6583312294275 4.4402996826966 6.8252030723306 8.4372589202827 13.012893151736 6.0404600734939 5.0778856429184 4.0400774725847 7.4281241123144 6.1318494344433 7.8269306080678 10.099589059634 7.157781134934 8.1181817036357 8.1271792096191 14.492018027952 7.2563912809496 14.667981295269 3.4594950047689 3.7505738936852 8.8148227760608 13.947565041065 12.284271175917 10.803591991788 9.078284863186 12.643688187301 18.228546333413 4.0244312005724 7.1697616870458 6.2899397292156 10.870290727071 4.0323776522204 4.6873998014343 5.9150690750943 6.1438894120065 7.4929998083046 3.2067130439125 8.0917029866368 5.8200301158571 3.9013121995001 7.3665429282401 7.8291339846991 6.7762669003005 6.472581137711 5.4662664597574 3.761634847018 6.5375440661106 12.055538460734 7.7391395180341 5.3142379532566 5.0168833568771 4.0992149543356 6.3953734364419 7.1913818318859 5.8270872056373 13.329238165423 10.171128415428 4.1532059846894 3.9570171939036 4.2193307851399 7.8946191559657 5.3172709852177 6.6798803708628 25.894597224048 9.0521957068284 10.0732056577 5.9309477724175 13.859279815977 7.8107272161159 6.82948317851 3.4235421745542 9.8531511897624 7.1079675211409 6.667931007743 4.4449624639173 8.7856262840515 8.814439965121 8.1829278711115 11.048435910962 10.150197409351 8.0442777261842 4.6413109141245 4.0196860877944 19.950826249114 4.5419020319955 9.1371685092584 8.6756340576644 5.5091166990904 14.248298930675 6.2098386819612 6.7913479741721 5.9496746901407 7.592611388901 5.1361777656199 4.2877744999046 5.9887906650873 3.9365389374712 4.8785257780914 5.4438175089804 15.756230966275 9.3383371285839 5.1391856516624 6.4385865899882 4.702250664753 4.3521865800579 5.7252508464899 6.9498008540217 6.2742978445756 6.715346575638 10.312039187114 9.133563627505 6.9844564686995 7.6332798627502 9.0140634555005 4.2805602736149 6.0568175232041 4.1166599689258 5.8906060932444 3.9279730893346 6.1776118543211 11.053887531392 9.128951337095 4.0028646711326 9.3967290214838 3.4057661374734 7.0062198755429 4.5994620474944 5.0950264256187 7.698743702957 12.655936839254 9.0134163482208 6.6361409480944 5.0200782895108 3.4345577451208 4.7817293870541 8.7106574692462 7.6129311604284 8.4552318153134 7.342443955452 9.6906273125806 7.6674885275399 5.7221137179555 3.9980982248755 3.5030922750476 5.1116658922132 4.6071970624653 3.8357626740272 4.0947806479806 3.9135772225945 7.204540464494 5.8208586807784 3.5877297595533 3.4245387517505 13.27280529982 7.3161230466082 4.6530638443847 4.4204814750984 4.1213379012642 4.2603675873196 3.7228925328248 3.777024440979 12.620985223024 8.1307629042958 5.8472740821338 5.6867075006271 12.765545428874 7.2000048504921 5.5331884606436 3.6947718550402 8.1566121154822 7.2073047859318 11.409805800127 4.0053466434415 4.3387234466607 4.2164132413798 3.3278414513043 5.6316781760951 5.9452266182088 4.8930333652443 5.091723556335 3.6386354345661 4.4518844611914 6.4399213197437 7.8940837854068 4.1623701708896 10.240959998591 8.1377385036335 3.2755068958553 9.0837234523359 10.041859388619 7.8459239592203 3.7415382141735 7.1228431291839 4.8735115620956 4.4846425032084 4.595452477203 3.6784696715133 9.61734293563 9.8777218025503 3.6035217806907 6.6945128372572 4.5035165528856 4.1503368807758 4.521053955115 3.4094025883057 9.8313670936782 8.0223201863572 6.9148766610759 4.9676437653244 7.4748543441777 6.5192608600237 6.9630470427682 4.7742255875143 7.2061155867681 9.7470044793207 8.4160900213597 4.5392236047358 3.762258271815 4.8758245300035 5.1848834381861 6.3903297006405 10.871290901313 4.4986823449754 6.8555753483773 3.2061150269874 4.7755443245186 3.3776067088536 3.8328086569845 6.2314361967055 4.3235153586162 2.7064598111323 5.1370942221587 6.2286140542406 6.1903414703729 4.9102650928818 5.7154165821614 5.0850412951807 4.8825115882127 4.3348878580145 4.498080893395 6.3998497314325 4.8766682740481 5.984153139597 9.8862588862274 4.5152173033856 3.8244469844166 4.5263741347544 4.5408905156338 12.410733366557 3.5901340856481 9.0257327275413 6.0686614816913 7.5337816396797 9.7200473887061 4.6538718732147 3.1092724787749 6.9968399947877 5.2774465545724 5.3022012986004 4.9028055708301 14.313946152174 5.7583641489498 4.0899592388176 4.9456109681561 11.607556130125 7.2789605276015 6.8330378535771 5.7525515670492 6.5036234794633 5.2395132174313 3.5344861898521 3.0663109317066 3.5883676593019 8.0372292848371 4.5827822159032 3.4307597369459 3.9661190567692 4.0251178743943 4.9896818783602 5.4907431433105 6.4811935709564 4.7641041081229 3.6207660638062 3.2832137754871 4.1080530939341 5.351967975336 8.3848270862929 6.3079456567259 5.402162067871 4.7103785408157 3.7523351609565 7.3721691336173 4.0330257606255 13.659056859652 6.1240784058025 3.4573069616939 8.9278112365131 6.632499332131 4.1190626369351 7.185765793727 5.9821693674726 4.077308840066 4.375632019165 3.7020290740271 6.278384876311 3.564462206762 3.7938534948811 4.1884731758668 3.465888659153 4.1560983952071 3.5771484701502 8.4179981800678 3.3576060879033 7.4499159023864 3.87193364175 4.0284107579236 3.2602070666591 5.2223830477074 3.6125308079433 4.0380469631101 5.806023497261 3.1523564505894 3.4168718299239 4.3700414825206 8.1131099254753 6.5942020566355 5.8985573910845 3.4558495477013 3.6383989645889 3.9428276834348 6.4649492302024 5.7343276702774 6.4351595905645 5.272254368886 7.6356505701228 7.4621750894356 4.169934962098 7.3042841938186 4.3159799189582 7.1889342215975 4.828106345093 6.6233812862298 7.5327085792327 5.6101752307682 6.5797099745118 6.2502398792808 6.4622090453376 7.0457655881864 7.212434630077 5.8959262027089 6.6091819092492 3.6175734931431 4.958750088493 7.8077770416013 4.5338098408375 6.6927709049063 5.2089956086059 4.405936285267 4.5450862173539 4.0954604408745 3.7290386185595 3.9306962094235 3.9673329489733 3.4711054578767 3.9866555301155 10.07779879057 5.3310267753561 7.5775615629398 8.4307397628712 4.0119847839636 3.5431042300183 3.6670379912582 3.8511848364882 4.1946353079783 4.4849627168247 4.2359055524106 4.305695253055 5.0551004730045 4.6945954673706 4.9629023956418 4.7143944735726 5.1219363155345 5.3158743190194 4.6396943720647 4.4712269178464 6.3320827530377 6.2214408294055 3.8992409819098 3.4004687459863 3.6470569192466 3.817312771094 3.5282607382724 5.8203708380972 3.9112140764867 4.8356432715148 5.0967829881085 24.645180227329 20.138078852054 3.2580323761699 3.6791947730809 4.7733480362686 4.1863604440753 2.993936538143 3.3456309606245 4.1048991978976 5.5940161580897 11.779551153141 4.2672265246532 6.0801651660955 3.7665314836605 3.9919292356821 9.6603166182805 4.0492761056231 3.3509494985377 6.4119377156178 3.4917511964354 3.4231122358858 5.0026891935264 7.5934521316226 3.8638161095812 3.3927492250265 3.4388733507227 4.8503954379974 4.6730093260285 3.5695099354414 3.4578424169394 3.6049766023495 3.7121303470506 6.9196659711657 3.4218340135511 4.4870764352977 3.5269245729987 4.3446675026589 3.3267900223979 3.6268143969734 8.9391237144965 3.2384143870859 4.7981797946752 3.4933622996286 3.3314471291072 4.0375844908079 3.1687448426898 3.4782148436757 3.4724759308558 3.6830674483623 3.4541705023758 3.351918858243 3.3394293164317 6.462233397216 4.0970205057295 3.4053178864523 3.6386699363959 4.0511387717767 3.7246228298751 5.5433541485363 6.4145167541562 2.9608755215193 4.9131826339746 4.4920063857739 4.4188704280085 4.8845394438751 3.979326941078 3.4846296427259 3.7849960039067 4.3164898255915 4.276715828608 5.413112718422 3.2246017813501 3.6544743468091 3.3655824207827 3.7830836057664 4.6185348667857 4.3270948948088 3.7208381790878 3.3655497970601 3.4863557858726 3.1188894526599 3.6959194176553 3.3994733575573 3.6105788560621 3.9048374146901 10.674555878184 3.5810284810809 3.9009017984909 3.7582406815952 12.880469085242 7.2447886742361 3.4615354696217 3.4302589695274 3.526527195601 3.8630959645115 4.0655696703266 30.368850139391 3.4072698165797 3.3916205616314 3.6903890576976 3.6141069658848 4.8613453741808 5.2818429032045 4.5837075543812 4.4586737682719 3.0876797543189 4.1853447663962 3.6089235616724 3.3203245445731 3.1977530845304 3.4175424177758 3.237464794587 3.6606253060737 4.935645175359 3.5597793408181 3.4293196811249 3.1190183244678 3.1934885362566 3.0377512082252 3.3698617666337 3.5162288065272 3.3483209474816 3.6219252096587 4.6819896193708 4.3845784055215 3.3998663013121 3.4735569919669 3.464902455192 3.8649015108529 3.5692681768338 3.3856693137784 3.4618209512688 3.4539195001547 3.3675788647285 3.2908583131543 3.2727978342791 3.8875429320753 3.4787664195631 3.9667164750806 3.603260080377 3.4022403313714 3.5230176645176 3.5006172290529 3.4698600298568 3.5382199387979 3.2438230822435 3.1182621957067 3.398587911569 3.2976356665715 3.146983077769 3.4445635909941 3.4007027880505 3.4709007506641 3.7199359351227 3.5136372069249 3.8885512666536 3.5807121804399 3.6293126783521 3.2453020879458 3.4435416823507 3.5830528832135 3.3507636575384 3.604568409711 3.4104198696357 3.9653188715476 4.3912758018129 3.5131964117066 3.5474830125229 3.7105240040071 3.5460255765131 3.474745120893 4.0466710250197 3.826408118179 3.6897972992492 3.7633629949588 3.9436736625721 3.5368867680944 4.2761098562149 4.3469131929904 4.0124050482693 3.7564488733079 3.7438780197929 3.4255855407529 3.6572021108894 3.9416104855312 4.1013705072583 3.786664063607 3.6189952157667 3.5821847718716 4.7513470550745 3.7516605081551 3.9311323417649 4.0723817204114 5.0041685882212 3.9972614831265 3.6084288378883 4.1003998700592 3.830892230612 4.082028417366 3.5680713229723 3.8669391565392 3.8565819721535 4.0565213062674 4.9971046896142 3.8126126548408 5.0399676436972 4.3046583378523 3.9435261452857 3.787488458301 3.8433960609225 3.9195006576016 4.0867682314361 4.2269152401479 3.7921612184038 3.8758520114363 3.8154286574084 3.7379723810044 3.9092168312429 5.0198418216344 4.1992895265786 4.1756467520731 3.6864937333014 3.8983902388974 4.1707668183706 3.9338568894887 4.1500531131659 3.9773199192032 3.9799168149298 3.9082473968755 4.0059806389287 4.0211234715296 4.8402104303825 4.0261740481397 3.9890590834512 3.9981472931046 4.2667602081479 4.4062039230865 4.3296525528806 4.6126208841409 4.7334453432958 4.5426259876639 4.3743016467897 4.3035377557514 4.9365327147516 4.7929491995019 4.8608714129195 4.6588317270464 4.8234176911853 5.0042466763821 4.7069999988025 4.5645458534861 4.0762858083937 3.8111676906579 4.1783376819595 4.1914570621829 4.0608437826405 4.1135814480372 4.2047681068069 4.41855079819 4.2544276650833 4.2863752245003 4.3761462894233 4.2935358658782 4.2569307833783 4.3261970855741 4.2216032299426 4.3115934819967 4.3217001128888 
SCALARS 50.00_0.96 double 1
LOOKUP_TABLE default