# vtk DataFile Version 3.0
d-2__ created by libgimli-v1.0.12
ASCII
DATASET UNSTRUCTURED_GRID
POINTS 1303 double
5.625	0	0
5.511811217919	-0.146388704457	0
5.676386535709	-0.13519637448	0
0.25	0	0
0.175228502521	-0.179050409113	0
0.326009290428	-0.144330725415	0
0.375	0	0
0.990207725992	-0.114957291708	0
0.841075314552	-0.137634199948	0
0.926498288371	-0.349340723189	0
-0.001071200562	-0.386156929004	0
-0.003317641763	-0.130454088023	0
-0.192720422374	-0.216308252768	0
1.25	0	0
1.175215748534	-0.200562384647	0
1.341115762259	-0.128605193971	0
1.375	0	0
2.25	0	0
2.168494514827	-0.19848886597	0
2.338304607341	-0.128945294536	0
2.375	0	0
1.911268305082	-0.334701951691	0
1.986191885908	-0.110806668109	0
1.838390258011	-0.128853462534	0
1.75	0	0
1.670105949089	-0.197137117999	0
2.986685504441	-0.10889534818	0
2.838723720416	-0.127406828384	0
2.912854264006	-0.329775839393	0
0.75	0	0
0.664572693147	-0.222613872306	0
3.25	0	0
3.168798596028	-0.193682232199	0
3.337828500197	-0.125181208794	0
2.875	0	0
2.75	0	0
4.25	0	0
4.161099470995	-0.193412132741	0
4.332718836325	-0.127723897736	0
3.83511440706	-0.12403687807	0
3.875	0	0
3.75	0	0
3.901908238995	-0.321557035295	0
3.983050435256	-0.106770030737	0
3.665527023987	-0.190866765849	0
5.25	0	0
5.164693411436	-0.21656556845	0
5.338419985376	-0.147288917438	0
4.834321952324	-0.135810575609	0
4.875	0	0
4.75	0	0
6.25	0	0
6.178399669611	-0.137425451145	0
6.356205370496	-0.193853696818	0
5.817814980918	-0.161175429964	0
5.875	0	0
5.75	0	0
6.611939839541	-0.314381537706	0
6.522886280605	-0.104721203126	0
6.75	0	0
6.669178832877	-0.119404962711	0
6.836073690852	-0.177498311423	0
5.39059629209	-0.37339102075	0
4.660917359886	-0.204007052252	0
4.902096977384	-0.356327271651	0
14.897042426984	-0.319128540459	0
14.98121339776	-0.105010975498	0
14.832720105416	-0.123004000492	0
2.669265824618	-0.196872625129	0
7.656019919505	-0.144451020927	0
7.75	0	0
7.625	0	0
6.625	0	0
8.75	0	0
8.672937461928	-0.164309120831	0
8.834289374889	-0.109279841483	0
8.206809119751	-0.294811800109	0
8.187056112549	-0.110869448227	0
8.024316200302	-0.129362764133	0
7.157390904024	-0.111206354394	0
7.25	0	0
7.125	0	0
8.25	0	0
8.125	0	0
9.75	0	0
9.651145885459	-0.185384966231	0
9.827054067621	-0.122428024454	0
9.381816956327	-0.305807769915	0
9.476753337472	-0.101567493772	0
9.327490061855	-0.116748040282	0
10.75	0	0
10.655660803951	-0.196164841752	0
10.830485405183	-0.127989131147	0
10.386748323888	-0.329675548046	0
10.478464938155	-0.108955040137	0
10.328560245085	-0.126395562242	0
9.25	0	0
9.375	0	0
10.25	0	0
10.15270392044	-0.192469144253	0
8.328856990144	-0.128933011689	0
8.375	0	0
9.153857570119	-0.175508527296	0
11.75	0	0
11.660624577581	-0.201812344528	0
11.833823570609	-0.131890823957	0
11.395399221028	-0.337817920558	0
11.481219500696	-0.111845889235	0
11.331881500183	-0.129806070652	0
12.75	0	0
12.669299873111	-0.199190799603	0
12.839534650452	-0.128328673855	0
12.40897914742	-0.340185307353	0
12.485654611126	-0.112072117633	0
12.336727606385	-0.131188239877	0
11.875	0	0
12.25	0	0
12.164627546098	-0.202605127067	0
13.75	0	0
13.669268468008	-0.186168180444	0
13.837322273199	-0.120178339978	0
13.416957459915	-0.319650485848	0
13.487510959619	-0.105281058988	0
13.34010202956	-0.123833443479	0
14.75	0	0
14.66080663422	-0.189613659871	0
14.399926333663	-0.319306441484	0
14.4823067449	-0.105599641009	0
14.334114343934	-0.12250571155	0
14.875	0	0
15.25	0	0
15.158227025815	-0.185762723401	0
15.330441202311	-0.11956675178	0
13.875	0	0
14.25	0	0
14.163960939829	-0.186365139356	0
12.875	0	0
13.25	0	0
13.171786689458	-0.193064330135	0
10.875	0	0
11.25	0	0
11.158129238503	-0.198418008741	0
7.31587636932	-0.171642077952	0
15.3902841013	-0.308450173235	0
15.478958243586	-0.102394874489	0
-0.125	0	0
0.125	0	0
0	0	0
-1	0	0
-0.706889652808	-0.331752981492	0
-0.5	0	0
1.125	0	0
1	0	0
1.625	0	0
2.125	0	0
2	0	0
1.5	0	0
1.488007132967	-0.109900770852	0
0.5	0	0
0.474245721096	-0.130043839003	0
0.625	0	0
3.125	0	0
3	0	0
3.625	0	0
4.125	0	0
4	0	0
3.5	0	0
3.485533411273	-0.107014956798	0
5.67736414417	-0.368119689468	0
5.125	0	0
5	0	0
4.98353533542	-0.118243061674	0
6.125	0	0
6	0	0
6.009467825362	-0.139471566496	0
6.5	0	0
4.625	0	0
5.5	0	0
4.5	0	0
4.481603306259	-0.111052305129	0
2.5	0	0
2.486482293556	-0.110456056597	0
2.625	0	0
7.828740664136	-0.157959666613	0
7.5	0	0
7.497789303332	-0.098817221798	0
8.625	0	0
8.5	0	0
8.493725508365	-0.094448160765	0
8	0	0
10.625	0	0
9.625	0	0
9.5	0	0
9.125	0	0
10.5	0	0
10	0	0
9.976983002093	-0.106037154081	0
10.125	0	0
9	0	0
8.980258705317	-0.095443922293	0
12.625	0	0
11.625	0	0
11.5	0	0
13.625	0	0
12.5	0	0
12	0	0
11.983083448534	-0.113269018621	0
12.125	0	0
15.125	0	0
13.5	0	0
13.125	0	0
14.625	0	0
14.5	0	0
15	0	0
11.125	0	0
14	0	0
13.984735949845	-0.103165953766	0
14.125	0	0
13	0	0
12.987740386932	-0.109238757727	0
11	0	0
10.980033547654	-0.110118532971	0
7	0	0
7.012790729926	-0.096165366155	0
15.625	0	0
15.653391866104	-0.184257106926	0
15.75	0	0
16.25	0	0
16.151956269841	-0.190746813766	0
16.328162175541	-0.125534698515	0
15.827345422636	-0.12109528269	0
15.881623705918	-0.315197408181	0
15.9768075603	-0.104841845177	0
17.25	0	0
17.155473725888	-0.187015736188	0
17.328334720487	-0.12053442359	0
17.375	0	0
16.97978281674	-0.105790715925	0
16.830585534618	-0.124270763258	0
16.892220832712	-0.321708894118	0
16.75	0	0
16.655725821363	-0.19281499559	0
18.25	0	0
18.144056513649	-0.199584109463	0
18.322695877645	-0.133173012767	0
18.375	0	0
19.25	0	0
19.156955168382	-0.212194778097	0
19.332395147696	-0.137501625504	0
19.375	0	0
18.978107771567	-0.118463258117	0
18.827251646435	-0.137822523984	0
18.884674261801	-0.359498065923	0
18.75	0	0
18.648603260315	-0.210400354993	0
17.973004229039	-0.108213471414	0
17.823362138939	-0.124125311933	0
17.87020700187	-0.324156104502	0
17.75	0	0
17.64837652944	-0.187413016584	0
20.25	0	0
20.167288289523	-0.206556633625	0
20.33799343326	-0.133667464393	0
20.375	0	0
21.25	0	0
21.172020853715	-0.201327641466	0
21.340729826518	-0.130206344264	0
20.875	0	0
20.75	0	0
20.839555732676	-0.132066213667	0
20.987710400762	-0.112937783384	0
20.915843633601	-0.342386775443	0
20.669904108595	-0.203936882105	0
22.25	0	0
22.168893714495	-0.194483818359	0
22.337089427477	-0.126591453251	0
21.875	0	0
21.75	0	0
21.840184239699	-0.127666317168	0
23.25	0	0
23.162361450448	-0.215073727418	0
23.335945395372	-0.148199257458	0
22.875	0	0
22.75	0	0
22.83504078106	-0.133126573368	0
27.412614995451	-0.337768305098	0
27.406417478875	-0.760610856776	0
27.663031754041	-0.476449210851	0
23.674319496044	-0.139602731619	0
23.75	0	0
23.625	0	0
22.902876337082	-0.348446434986	0
22.664415839639	-0.19979598046	0
21.987454968006	-0.109075483352	0
21.916658702332	-0.330379709848	0
21.67241042914	-0.19774510361	0
19.984830323221	-0.115851903278	0
19.835879034474	-0.135573032779	0
19.906686139011	-0.351521653308	0
19.75	0	0
19.663378765328	-0.209646647928	0
24.75	0	0
24.672305039303	-0.121865624882	0
24.84054616259	-0.178479133746	0
24.25	0	0
24.125	0	0
24.179559510218	-0.145425217914	0
25.656694723316	-0.141492417978	0
25.75	0	0
25.625	0	0
25.25	0	0
25.125	0	0
25.159224348757	-0.109007087058	0
22.647257188685	-0.476376729768	0
22.872248033711	-0.780455516934	0
25.317652966423	-0.167196322239	0
31.908525182248	-0.237434634112	0
32.248547795208	-0.367887731521	0
32.025	0	0
26.398062594932	-0.327144710524	0
26.335089901602	-0.124890632532	0
26.169730315141	-0.188549564961	0
26.75	0	0
26.662500836065	-0.197477656933	0
26.835401004001	-0.129534360312	0
26.375	0	0
26.25	0	0
27.486869476066	-0.111474770432	0
27.338367230812	-0.130187170762	0
23.816158307302	-0.168335740772	0
23.875	0	0
24.625	0	0
27.75	0	0
27.67023663024	-0.198727549038	0
27.839431305592	-0.128541986375	0
27.375	0	0
27.25	0	0
28.75	0	0
28.666013303123	-0.192953151514	0
28.835335299513	-0.125393524551	0
28.875	0	0
28.41074998604	-0.32692743598	0
28.485854239984	-0.108071323096	0
28.338261561589	-0.126341817439	0
28.25	0	0
28.169650699531	-0.195402875109	0
29.75	0	0
29.656991685033	-0.201213204108	0
29.830700495316	-0.13323291855	0
29.875	0	0
30.75	0	0
30.665605116896	-0.213760177502	0
30.837855425721	-0.139272404211	0
30.875	0	0
30.987248292653	-0.119871959545	0
30.911614165903	-0.362389547989	0
31.25	0	0
31.174363802618	-0.217041176186	0
31.346460135447	-0.143418487957	0
30.400599561582	-0.360265197586	0
30.483280501431	-0.118794220148	0
30.3336351656	-0.137924489201	0
30.25	0	0
30.159375273254	-0.21004086356	0
29.392934647931	-0.331414044449	0
29.48031118177	-0.110263057575	0
29.331777210358	-0.127344913482	0
29.25	0	0
29.160548153072	-0.194064979946	0
27.167334579456	-0.200440763045	0
24.359650796728	-0.20304719459	0
-0.25	0	0
-0.404335947278	-0.221464959739	0
16.125	0	0
16	0	0
17.125	0	0
17	0	0
16.5	0	0
16.478267427857	-0.108008273171	0
16.625	0	0
18.125	0	0
18	0	0
19.125	0	0
19	0	0
18.5	0	0
18.473681471998	-0.115768873419	0
18.625	0	0
17.5	0	0
17.47687846862	-0.103462148239	0
17.625	0	0
20.125	0	0
20	0	0
21.125	0	0
21	0	0
20.5	0	0
20.486446843971	-0.114298370976	0
20.625	0	0
22.125	0	0
22	0	0
23.125	0	0
23	0	0
22.983281399654	-0.116385827149	0
23.5	0	0
23.509214189908	-0.149359691049	0
22.625	0	0
22.5	0	0
22.48467632496	-0.1093719097	0
21.5	0	0
21.488472844532	-0.111208801785	0
21.625	0	0
19.5	0	0
19.482219828947	-0.117572233456	0
19.625	0	0
24.5	0	0
24.525433875838	-0.108080714825	0
25.824234283709	-0.149177038136	0
25.5	0	0
25.498573523516	-0.096586408813	0
25	0	0
25.014769107289	-0.095147895568	0
21.919931345447	-0.741308582321	0
22.160361550711	-0.463896476278	0
26.625	0	0
26.5	0	0
26.482631880244	-0.108512805864	0
27.625	0	0
27.5	0	0
27	0	0
26.984612185119	-0.111680714924	0
27.125	0	0
26.125	0	0
26	0	0
25.990349817319	-0.10847866492	0
28.125	0	0
28.625	0	0
28.5	0	0
30.625	0	0
29.625	0	0
29.5	0	0
29	0	0
28.983089608831	-0.107750428826	0
29.125	0	0
30.125	0	0
30.5	0	0
31.63125	0	0
31.5	0	0
31.494696987447	-0.123712578064	0
23.671261205816	-0.380102168636	0
31	0	0
31.125	0	0
30	0	0
29.980228243528	-0.115525062547	0
28	0	0
[...]
CELL_DATA 2263
SCALARS 1000.00_0.99 double 1
LOOKUP_TABLE default
9.2611733614965 7.6374530300673 7.7073754830891 8.5555258106676 7.5314029682564 9.052949184848 9.1199895698734 9.4063507158221 9.4067427122375 9.4396400045429 9.5303756706186 8.8336828381325 8.3780947540504 8.3821814616118 9.0562725124304 8.8824855619763 8.3610086352327 8.3982492981236 8.3215580400262 8.9550133966776 8.9745895626191 8.8917787033447 9.2632470843457 8.7573167703781 8.6622392013971 8.9686152728952 9.2626654346257 8.7763415235851 8.9136862640934 10.537408086245 9.0901476835434 9.7983262422232 8.618142048302 9.7987291394664 9.6067996508162 9.455016721095 9.5601329616573 9.9456223646263 9.3944785331542 10.610452451758 10.475260870426 9.2501929789049 10.549721639121 9.596764927198 9.2778426912438 10.120618040568 10.115109238862 9.960607139018 9.6180241654348 10.083280217008 9.6713568570842 10.115806912814 10.24522722874 10.824227672656 10.562033559033 10.812793917682 10.046844530498 10.113582372949 10.565566757896 10.065161716942 10.123763176546 10.666087824858 10.092619717411 9.5063183262165 10.078482707844 7.5918190040282 7.5416474914351 6.8085557505282 9.0167272877641 8.8502373062835 9.5368675621442 9.604762566106 9.4342691147449 9.4799456369246 8.1728202504534 7.5356627401125 8.4736256481623 8.765863415237 8.326089974035 8.691752203924 8.3840155190152 8.8500142423984 9.1279161128377 9.00109523375 9.245433084085 9.1112345157984 8.7136366873092 8.9072783929739 9.2809722364746 9.1266211702757 8.9681201833638 8.9347288042415 9.3887201655147 8.3214536820444 9.7912227467608 9.8118768664827 9.5679694761184 9.8766259349703 9.7102575919988 9.8519921406468 10.621483297284 9.7246486004113 9.3522476112329 10.686409178155 10.339171140144 10.514088288634 9.6131709634199 9.9314744848331 9.9111029461966 10.347581544435 10.145153630083 9.8315087039096 9.9491102126557 9.7481164980411 10.140071177685 10.312580920267 10.062575232533 10.896306435713 10.469756053482 10.166717177465 10.529874896911 10.601533280246 10.100723592291 10.923684917786 10.477362659475 10.253449924018 9.2887846409837 9.2103514669346 10.577026484008 10.576701970369 10.462072915381 9.5380291748683 9.5096615246798 10.39354574892 10.717447472916 9.0778065809789 9.0592208466105 9.7630106121346 9.8534997261894 9.3893094314809 9.3730671486248 9.4608761444378 9.6061662916382 10.515480795365 10.571817261041 9.245374016156 10.042815802808 9.8093861769316 10.054063594322 9.4732025941568 9.678801690175 9.3548805298106 8.9111053530696 7.7425611135245 8.9545119891436 8.8648085389482 8.8955608245804 9.5241978883516 9.6572628607704 10.009999371587 9.8923342586496 8.9269575502588 8.4303529443399 9.2119845372236 9.1607417625285 7.9776054958838 9.1266367130351 6.0848015991772 8.7412050536583 8.3922606543247 8.9861252548749 8.5501659730403 8.9186591040568 8.9247604290258 8.9902027516055 8.8328752609796 8.5453662783655 9.1436841612302 9.1673795723541 9.1510573313113 9.1920607576396 8.8756346336172 8.8706018730114 7.5935016971497 7.4724000696662 7.3904373549885 6.9194149052725 8.0502622141726 8.0943436176028 9.0663592273604 9.2164582512831 8.5080159857453 8.4259892883124 7.3047929835927 10.655999222191 10.599355038359 10.120020543989 10.775604250692 10.572999919718 10.772641004083 9.4142595744947 9.7323897294238 9.6716763213447 9.3055511484759 9.1622151386967 9.7360483869645 9.6249747701701 9.6871286718881 10.451155103973 9.3135830126529 9.6990675885642 10.441585548015 10.555033016951 9.5562906965289 9.696969350532 8.9182019478188 9.3510437915546 9.1710074950837 8.9347398552702 9.2208587483513 9.4221395640069 9.6623710531475 10.167223217519 9.9619942315719 9.3666049879193 9.8774828319973 8.8850341988502 9.1117757771701 9.3081967389461 9.2107825980435 8.2750592060947 8.4436337344083 8.6953682438279 8.8241799230298 8.7772215827182 8.5410622769068 9.0822490714166 9.152220235909 9.1759158262588 9.2696022996094 7.7651021173413 9.1002041476587 9.3020386021897 8.9436538799548 8.1852619649307 8.0294582142014 8.5140507624156 6.5612020422886 8.8421550771114 7.3451912808944 9.2682139205827 8.5260450799891 7.0954473040056 9.1065025536038 9.1678494342618 8.6795495617901 9.714430666073 6.6594179603564 10.409422595776 7.533807331557 8.9211190914619 7.9935901653528 8.9325247411796 9.3066799116585 9.5203663078797 9.4128636389846 9.4698105244539 9.6313573216172 8.2705015809165 8.667693476417 8.6002483178022 8.3804294998457 8.7542684789494 9.0353856215598 8.3456407150885 8.5482637444471 8.9448357825461 9.225673755319 8.4533854549401 8.8452519509959 7.7628559384602 9.0974820640829 8.8976782571727 9.2316180576169 8.9037126428152 9.06150878003 9.2820455205724 8.924664604416 9.851129407612 9.881356637091 9.7242378992306 9.6780132472531 9.7800602878562 9.8433897693332 10.186013946021 10.612682917019 10.666788889022 10.394694780451 10.754794547529 9.4877790855434 9.4499261886832 10.311726076679 10.014791539441 9.8376277663036 10.187258055447 9.8239079741857 9.7808388583073 10.242464231532 10.320339952709 10.902223480548 10.66381748205 10.277711926916 10.197292071775 10.584809892418 10.734952937153 10.05495261176 10.356418221064 10.309345563542 10.216448962561 9.7212131150398 9.7918071250285 7.1522990050691 10.485454241467 10.688397033949 10.588237699819 10.747151217175 9.8377383135778 9.6348468222299 10.733745956404 10.534817237563 9.2827168612583 9.1826556796686 9.676183647408 10.004827917004 9.332066638562 9.6040679829829 9.7302027508181 9.5293225718209 10.486284234767 10.57381444208 9.491420108011 9.4605633938923 10.268038295448 9.9315528627024 9.6001905327747 9.411501386773 9.3844621664736 9.3409047221533 8.8002942487895 8.8697259245955 9.0575491211565 9.1472316510186 9.6946474314194 9.7170354364538 9.8990167240276 10.251178378264 9.25971535684 9.1482978696942 9.1573015418332 9.096877078957 8.8218487815718 9.2290674279971 8.5403956922308 8.5026483315386 9.0947021333648 8.8740371926607 8.7874184150688 9.0380398081047 9.1982766375244 9.2586615140756 9.1170286454234 9.3247526417713 8.9971213442321 8.751866460308 7.9291314295822 7.3375404540144 7.2361122632581 6.6208745828112 8.3525875767518 8.0253634851758 9.2712343996577 9.1940615776964 8.5216533647508 8.692553725896 8.5717799096639 8.7166630095485 6.2621589530698 7.4736192971265 6.3680122258765 7.6571755900558 6.4652363188433 8.4993964580769 8.4337923097062 8.8761646477454 9.5792094637738 8.3571117206854 8.6923092925987 9.125539304647 8.1064260847626 7.91916797298 8.1954289309921 8.962087852397 8.1797919811801 9.024043343328 8.619883137726 8.3153469274458 9.0687044435385 8.9263548954333 8.8579398022819 8.0064698797665 8.8311650355368 9.8407577881494 8.8882290953584 6.5313078464047 8.4820101481467 8.827103860026 9.3545821689556 9.2619310492062 9.682173688608 9.7815904238126 9.7733696826702 10.004425673022 9.1688453782994 9.2878621087135 9.2878609004097 9.8746382519783 10.651849941398 9.5820531266854 9.5510292514429 9.9641376134812 9.5849701610058 9.7008527247757 10.075895602293 9.2506593525222 9.6827927661773 9.9202338473479 10.103796149662 9.8897123504599 10.205063092948 10.094914569622 10.584983375677 10.030663417653 10.593614622134 10.632534906317 10.233084123598 10.252698512236 9.6127218235171 9.9831944501405 10.401562087928 10.495374597284 8.7060808290721 9.5383966363605 9.8187394171243 10.633264372149 10.168270249091 10.449088655622 10.752789221515 8.9001308424144 10.376836226951 10.503799415172 9.5864004150049 8.9642207489851 9.4335099066012 9.5046577408255 9.3001383960219 9.0882707656794 10.03746408196 9.5969158407397 9.9596364661237 9.2377287573063 9.0427385324132 9.4809696243237 10.088926540459 10.30901428216 8.8714650381897 9.3857986883987 8.9214196928498 8.6675139607101 8.996503439619 9.087350518478 9.4172018211618 9.27359405483 9.5613278675671 9.3468149968604 9.4089836347604 9.7631095363617 9.0631164246281 9.0821509798948 8.5319588247458 8.4013359300843 8.4386029675841 8.0582688296517 8.5904226843187 8.8907310030083 9.0189289421359 9.1143823022337 8.2627861026179 8.7195147328551 9.2571338151529 8.5484058436564 8.5844432889002 8.8570474837007 9.2283608392816 7.6638855569076 8.0354839707271 6.8055675215529 7.9605552329219 6.1696309784449 8.9321832124809 8.6909181377836 9.0894622979258 9.1269555071666 8.745000534679 8.3166194529814 9.0484257270026 8.5183053471572 6.9852535533554 6.99075079977 6.97353503632 6.5431796002334 7.7632572622208 7.8480015745956 8.9712435716854 9.1807359985891 9.214930110288 9.392066739323 9.3426156362046 9.584534091082 8.3945290759478 8.5259374021879 8.2892823785292 8.3587533920438 8.7076596519624 8.9819388245854 8.2715620135277 8.4244688998941 7.6816548240239 9.0971028037824 9.0501784806204 8.8967541188801 7.3286044439148 8.7527668809387 8.814141101606 9.2426927277524 8.3483472980215 9.0076085106265 8.8580579493409 8.9898804102104 9.389412368055 9.8544664756361 9.6372550058411 9.7610441669391 8.8854277861028 9.6815020787435 9.8077428631914 10.053786270533 10.406750367853 10.668728920816 10.311651971428 10.677180270647 9.3073264007776 9.3194788500141 9.8799219693941 10.032649327323 9.8184685701535 10.1159491148 9.5213493629446 9.7037786236964 10.13935358702 10.194087139366 10.53201369707 10.734019375821 9.9839216646663 10.077475759956 10.441343701084 10.622524479407 10.0962325614 10.286244119247 10.035524889859 10.127925399627 9.0520512110809 9.6119208568004 10.351790726609 10.633299315177 10.376592320814 10.658068457312 9.5494449746031 9.5638811774138 10.392745784492 10.664047822977 9.0209764381476 9.0998307881053 9.5922617678141 9.910832317258 9.2386828508336 9.4907232455178 9.4602024149455 9.5568289834379 10.200027060544 10.553391880078 9.2293419396768 9.3209409936882 9.7953290685947 9.9959410791304 9.240103195334 9.4460458330208 8.5522771773918 9.3467752788309 7.5843484521551 8.90347497499 8.6135885017672 8.9997570944266 9.4370931938487 9.6743818763189 9.8039353420052 10.066772100764 7.5267218670446 8.9880031071213 8.8124598935205 9.053247553065 8.2609141115572 9.1291009766664 8.5377273169039 8.4380934282217 8.1813801035653 8.9245052614384 8.7174565371456 8.9372278371371 9.0421936571538 9.1953218577551 9.0384579691572 9.2783757558749 8.7118690567411 8.823723528566 7.4979812830952 7.4038716797137 6.7819535867522 6.7126326704757 8.0823991630594 8.03773923727 9.0360398584657 9.2014549652751 8.4290267083085 8.5965706486153 8.1089867782993 8.4627472001522 7.1710970065627 9.1949123552449 8.2464049484003 9.1396057850957 8.8311907057927 8.2660092567695 8.3634485652179 8.8501002558028 7.8928672978276 7.991607295044 8.5417460771136 8.7572365112706 8.2424372472765 8.2625892897596 8.10160169185 7.9890712669477 9.5413395563537 9.2842922616313 8.8358262431518 9.3485682020342 8.4907802897148 9.6979933097448 8.3966783982548 9.5564932681524 9.5962255087731 9.622551682073 8.2332165890636 8.6307841965189 8.8128996102608 9.7010718469198 9.794599058992 10.034497689436 8.5442301553587 9.5004596823275 9.1889334637865 10.319759673628 9.8930996574749 9.7236620302308 9.3488564909998 9.6039286189168 8.4327462343891 7.8355995741933 8.8065269393194 9.9552611969199 9.3242300303031 10.358602276702 8.6289064452372 9.2204737572606 9.4635742318 10.298378479695 9.3926246490342 9.8011127533105 9.738861644436 9.8680451729264 9.4769804253736 10.028995977966 8.8592237589819 9.6324492719018 9.2065042579717 9.8105409553503 8.9588332864538 9.2187035600849 9.2459973468166 9.5552428366613 9.2433551044441 9.6128195399426 9.4281029211075 9.1168686774848 9.195533642107 9.8862886999848 8.2819550578149 9.7234603469735 9.0256310750519 10.114389070912 8.2235375373424 8.7511648294371 8.9337560740803 9.2717052070424 8.7311534622229 9.4138574200282 8.9555716781127 9.0760936501324 8.5754030339947 9.4243630827028 8.9491537193742 7.6966875405114 8.8995736849919 6.1039226854555 7.773581166609 7.6369470381719 7.1946945310617 8.4399609266302 7.8458099227977 8.9594932749767 8.4151632772398 9.2332683290959 7.1452296932912 8.7961294992966 9.02641154815 8.3966967233781 8.7708326089049 8.4989071376024 9.0512853348186 8.8865103808274 8.7999730548475 8.29970796002 8.0907795173523 9.103720324041 8.7202340007939 8.4811148688865 8.3128357490026 8.5452085483895 8.0168149276535 7.2521154076278 7.1375917126448 6.5173576411156 6.5914750605351 6.1038518062158 7.6513460752822 8.161948923616 8.2711402313595 8.7334974258955 8.3814428918882 8.9192572283729 7.6821944787428 8.1037394624004 6.6624817558344 7.1224875298392 8.6802334814732 7.5739085158681 7.2135536940247 7.9174497450641 7.2907817750768 7.6101571711218 6.3483056243399 6.8147698451567 6.2074463094764 6.2278044290622 5.9850976350095 8.8874962924095 7.2384879584021 8.584178912157 8.3422959909554 8.1007383920697 8.0329857394923 7.287143392507 7.8024176260693 7.9893402024786 9.5569448386821 7.6666490312154 7.6279131347839 8.4455844579291 8.2464038786301 9.1424830617157 8.3130434996829 7.9553994935105 9.6158367934093 6.0311274119825 8.8858188374059 7.6302751661819 8.363266680303 7.9523229915049 7.8356493305801 7.806255632865 8.1545972686664 8.6531606669379 9.0625634387218 8.551931036592 7.2900436668764 9.6898252601115 9.0186909782521 9.2732286986081 9.1421704966907 9.5673917016487 8.7630671225314 9.2548870041684 8.8733605254141 9.1648998403892 8.8414609257457 9.4993838662682 8.6661748282306 10.071544443621 9.8405848838204 10.039528368584 9.3320242437744 9.9115682812509 9.4976498238253 9.7053752598804 9.2555400564833 8.2147349477557 8.9498691665727 9.734153864834 9.0812375783291 8.5481868340039 8.1106279232346 5.7042860327346 8.1192856465043 7.2776209740644 8.9534017975557 8.7587001406414 9.8660954073272 9.2570076146744 9.1537400519282 9.8723173137269 8.5247750334677 9.2414747604866 9.1979743345493 8.7774756736282 8.692432133962 8.8025094333617 8.287793978104 9.2023180490817 8.6458848839935 8.505239715492 7.6703491981563 9.3419055705166 8.6366523570043 9.5318907777558 8.4911396915685 8.7109871927101 8.0929267586214 8.8217022650033 8.3416041712541 8.3501406990182 8.8785395198264 8.9519847976776 7.7495815244145 6.5042952314754 7.9516259039774 9.2710223380266 8.6209158115986 7.7614637657567 7.988150295492 8.0091727741676 9.1260354298171 8.6591174705124 6.338024454236 8.1151112713885 8.153138171832 6.4717248542826 8.0519313194293 8.602895064182 6.4437915857478 8.0717027107602 8.2116515138507 7.5074101879313 6.3534596346463 8.040216905032 7.5090292442339 8.4804572431676 7.911437825409 8.7127907346359 8.2359966227861 7.8177917207176 7.4656715955315 8.3897158122314 8.912520788925 9.1858849395138 7.9910883020963 7.6360811159218 6.8708409471197 8.5741999600704 6.1183473635296 8.3184826881391 8.8969283841508 7.496119236086 6.7558916407486 7.4237108082235 5.7541211206033 6.1791884457242 8.7214104160544 7.2396638566783 8.9357782184498 7.3424715941051 7.0028620094963 7.2277863820654 8.984549974806 8.1146954423876 8.5330795446301 9.024539527096 8.3166685094808 7.3318498621805 9.0385174725527 7.594169595389 6.1557913626277 6.6548862628722 6.8967531105579 8.1520561999578 6.829490733637 8.8527990099996 8.9324790345049 8.6479259567463 8.7972070807549 9.0940891159594 8.0558680329536 6.3532426276537 7.8026820086086 8.7142618636948 6.1073298115756 9.4762717886547 8.7210231858583 7.5870483272432 9.3573022300612 6.9560149329896 8.9026246568112 6.5167605475732 8.9841214701259 7.1026143412414 8.5697142415688 6.4358070255686 8.3268917624631 6.4944396219381 9.1979871809308 5.6829036522313 8.5374724295156 8.404624133112 6.0574200810708 4.1702064312824 6.966590743603 7.8747904970988 7.5530187545844 7.0342702831207 8.5420030436451 7.4891376206245 9.0873405546298 7.1955260772052 6.7211430722484 8.6034695089855 7.1645689976965 8.2405612254883 6.5621583266158 7.2422401278745 7.9050553321643 6.7819108239346 8.8702908181096 7.0826493565005 8.2974268218657 8.6969791145431 7.3107519785769 6.549695796077 7.640896167461 5.8086452828404 8.3032597709058 8.257867085849 7.5670219993726 8.4581249529033 8.3708441567182 5.2828695314556 8.158205543607 6.4623965658939 8.0564976945543 6.4100833053957 8.4903106991083 6.3757933473901 7.9214629385538 8.0792257294999 6.4134136844732 7.6028679405555 8.0916624747663 7.8962009025275 7.674775628459 6.9422760362418 5.7598985019485 7.0845224263344 6.6416929382465 6.0416464481451 8.1855244973106 6.6115126327952 7.7341207012189 5.2145187823119 8.2886827634201 6.2054911388669 7.8732748301026 8.5300126176092 8.5875557830172 7.7735141322192 9.0602931946452 7.3733246387144 7.9705338098828 7.531059695556 6.801021203297 5.7204713605581 7.4033893161016 6.0438536021346 5.4991105962935 6.5736583186696 5.7943752033494 6.6028742143666 5.6022340575732 6.1773369061739 4.6858726868215 6.5097104476938 6.245303173394 6.4813256812698 5.8832731010092 5.9011748730018 5.5123890067036 6.4250393193739 6.2857818409661 6.6348185753114 6.3361585665323 5.6926746259227 6.5473844100054 5.9308178805789 5.8493646430052 7.8659407924054 6.6839363231985 6.2001400150953 6.3666336980846 6.1334914090156 7.0634369446954 6.185303043306 8.0686360718386 8.6308862358884 8.2780427546573 7.661658100128 5.9650487948964 7.4353733597824 7.1825096599228 8.4295301613184 6.6884214633202 6.020142046719 8.1759537934145 6.7408600619487 5.7939410824842 6.7621543609338 7.4293996215031 6.0802840246425 6.1674937660891 6.7571307928652 6.2959419053851 5.1053483842484 6.1635754553215 5.7088940402684 5.837581348875 5.11341264148 5.1520251321473 6.7679377742726 5.4686593841657 4.7113740548486 4.4680987117171 3.8788124397271 4.7054585744996 5.0025617147214 7.4360921637135 7.6178737382648 6.9433025173446 7.0717805404494 9.0800201122106 6.0171946689607 6.6116084656361 6.3178602036394 7.7628729488764 8.2673105432116 5.9152987987399 6.1258525244371 6.7817758728989 7.8488915088539 6.3948121997191 6.2648286723649 7.7097927796856 6.5683814003926 5.3835159575246 5.8429999352092 6.1642861262096 5.6298469228643 4.8743161713939 5.7476615506345 5.2429146350954 6.3257637320924 6.8262228601545 6.790809393209 5.4663074790996 6.4792841066845 5.8205763577942 5.6029435598946 5.3898672765037 5.4855127557988 5.7377832675895 7.0903391191056 5.7589609326322 4.2012349872877 6.9503254069159 6.1442476464638 5.3148841018437 5.4459140016334 6.1904137337464 5.2010285509535 5.0977085138982 6.6032952150372 7.2267958993356 7.2888756578798 5.1410322133847 4.1991200176753 5.6740947394419 6.6767611255601 6.6130386343229 6.6700420892411 6.9096695116394 5.9566490000383 6.1523858150141 5.2930228502641 5.2036844093828 4.7045670363531 5.1879807559012 6.0610480599345 4.6334002927949 4.1921826338633 5.3773083715483 4.5511084562416 4.935219583693 5.4054913769625 5.1705526837188 5.9443863972823 5.6390160108814 6.0123884517456 6.6395130120011 5.8136870364449 6.1551288822177 6.7080054687835 5.4533105126091 3.4235011223865 5.7127915935788 5.6865284348076 6.2809585734861 5.1381789764019 6.6232954153623 6.2765284300944 6.3182069595612 6.2946086518588 5.5772987389431 4.9597563836992 5.9489971036118 5.0421049975183 7.1351586750906 7.4605626516287 5.4052946260506 6.1999333204609 4.9489886183981 6.3560083005777 6.9760584503677 7.039826257176 5.2671862167127 5.706351737905 3.9245785681265 5.4378737200622 4.9058615105302 7.0139240431101 5.7980597041996 6.1329851685762 5.2854711652953 4.7213557105726 5.8052662714224 5.2316020231781 6.0665661702117 4.6286344226468 4.6978715973449 6.4584090379239 5.4309121196513 4.9135116734893 6.4707391583079 5.6158947281975 6.4131670047718 4.8883986372474 5.7110720953037 5.5567209490852 4.9503804623324 5.686783928613 5.172054122087 6.9169082237982 6.0526870431329 5.650644510866 5.5002291677615 5.7627004522376 6.2641914305195 6.3409252095664 5.8171916637964 6.6871236198865 6.0473767300208 5.1047525391106 4.6169597949935 5.1209431058067 5.1956483587174 5.312775335555 5.4714892838154 4.6200247291363 6.1496748519019 6.6209205987314 3.4356298069659 4.939456319681 6.1133968309281 4.7826617043896 6.2199239336704 5.1547494300186 5.0828479183871 4.066018601596 5.4597979541792 4.0892326213862 4.2634689875099 5.2085548180742 4.7194505094959 5.2157722461465 6.0888525407537 5.3174776120844 4.2748469896808 4.4898486719181 5.0457394565238 5.3077961716069 6.606140093