# vtk DataFile Version 3.0
d-2__ created by libgimli-v1.0.12
ASCII
DATASET UNSTRUCTURED_GRID
POINTS 1303 double
5.625	0	0
5.511811217919	-0.146388704457	0
5.676386535709	-0.13519637448	0
0.25	0	0
0.175228502521	-0.179050409113	0
0.326009290428	-0.144330725415	0
0.375	0	0
0.990207725992	-0.114957291708	0
0.841075314552	-0.137634199948	0
0.926498288371	-0.349340723189	0
-0.001071200562	-0.386156929004	0
-0.003317641763	-0.130454088023	0
-0.192720422374	-0.216308252768	0
1.25	0	0
1.175215748534	-0.200562384647	0
1.341115762259	-0.128605193971	0
1.375	0	0
2.25	0	0
2.168494514827	-0.19848886597	0
2.338304607341	-0.128945294536	0
2.375	0	0
1.911268305082	-0.334701951691	0
1.986191885908	-0.110806668109	0
1.838390258011	-0.128853462534	0
1.75	0	0
1.670105949089	-0.197137117999	0
2.986685504441	-0.10889534818	0
2.838723720416	-0.127406828384	0
2.912854264006	-0.329775839393	0
0.75	0	0
0.664572693147	-0.222613872306	0
3.25	0	0
3.168798596028	-0.193682232199	0
3.337828500197	-0.125181208794	0
2.875	0	0
2.75	0	0
4.25	0	0
4.161099470995	-0.193412132741	0
4.332718836325	-0.127723897736	0
3.83511440706	-0.12403687807	0
3.875	0	0
3.75	0	0
3.901908238995	-0.321557035295	0
3.983050435256	-0.106770030737	0
3.665527023987	-0.190866765849	0
5.25	0	0
5.164693411436	-0.21656556845	0
5.338419985376	-0.147288917438	0
4.834321952324	-0.135810575609	0
4.875	0	0
4.75	0	0
6.25	0	0
6.178399669611	-0.137425451145	0
6.356205370496	-0.193853696818	0
5.817814980918	-0.161175429964	0
5.875	0	0
5.75	0	0
6.611939839541	-0.314381537706	0
6.522886280605	-0.104721203126	0
6.75	0	0
6.669178832877	-0.119404962711	0
6.836073690852	-0.177498311423	0
5.39059629209	-0.37339102075	0
4.660917359886	-0.204007052252	0
4.902096977384	-0.356327271651	0
14.897042426984	-0.319128540459	0
14.98121339776	-0.105010975498	0
14.832720105416	-0.123004000492	0
2.669265824618	-0.196872625129	0
7.656019919505	-0.144451020927	0
7.75	0	0
7.625	0	0
6.625	0	0
8.75	0	0
8.672937461928	-0.164309120831	0
8.834289374889	-0.109279841483	0
8.206809119751	-0.294811800109	0
8.187056112549	-0.110869448227	0
8.024316200302	-0.129362764133	0
7.157390904024	-0.111206354394	0
7.25	0	0
7.125	0	0
8.25	0	0
8.125	0	0
9.75	0	0
9.651145885459	-0.185384966231	0
9.827054067621	-0.122428024454	0
9.381816956327	-0.305807769915	0
9.476753337472	-0.101567493772	0
9.327490061855	-0.116748040282	0
10.75	0	0
10.655660803951	-0.196164841752	0
10.830485405183	-0.127989131147	0
10.386748323888	-0.329675548046	0
10.478464938155	-0.108955040137	0
10.328560245085	-0.126395562242	0
9.25	0	0
9.375	0	0
10.25	0	0
10.15270392044	-0.192469144253	0
8.328856990144	-0.128933011689	0
8.375	0	0
9.153857570119	-0.175508527296	0
11.75	0	0
11.660624577581	-0.201812344528	0
11.833823570609	-0.131890823957	0
11.395399221028	-0.337817920558	0
11.481219500696	-0.111845889235	0
11.331881500183	-0.129806070652	0
12.75	0	0
12.669299873111	-0.199190799603	0
12.839534650452	-0.128328673855	0
12.40897914742	-0.340185307353	0
12.485654611126	-0.112072117633	0
12.336727606385	-0.131188239877	0
11.875	0	0
12.25	0	0
12.164627546098	-0.202605127067	0
13.75	0	0
13.669268468008	-0.186168180444	0
13.837322273199	-0.120178339978	0
13.416957459915	-0.319650485848	0
13.487510959619	-0.105281058988	0
13.34010202956	-0.123833443479	0
14.75	0	0
14.66080663422	-0.189613659871	0
14.399926333663	-0.319306441484	0
14.4823067449	-0.105599641009	0
14.334114343934	-0.12250571155	0
14.875	0	0
15.25	0	0
15.158227025815	-0.185762723401	0
15.330441202311	-0.11956675178	0
13.875	0	0
14.25	0	0
14.163960939829	-0.186365139356	0
12.875	0	0
13.25	0	0
13.171786689458	-0.193064330135	0
10.875	0	0
11.25	0	0
11.158129238503	-0.198418008741	0
7.31587636932	-0.171642077952	0
15.3902841013	-0.308450173235	0
15.478958243586	-0.102394874489	0
-0.125	0	0
0.125	0	0
0	0	0
-1	0	0
-0.706889652808	-0.331752981492	0
-0.5	0	0
1.125	0	0
1	0	0
1.625	0	0
2.125	0	0
2	0	0
1.5	0	0
1.488007132967	-0.109900770852	0
0.5	0	0
0.474245721096	-0.130043839003	0
0.625	0	0
3.125	0	0
3	0	0
3.625	0	0
4.125	0	0
4	0	0
3.5	0	0
3.485533411273	-0.107014956798	0
5.67736414417	-0.368119689468	0
5.125	0	0
5	0	0
4.98353533542	-0.118243061674	0
6.125	0	0
6	0	0
6.009467825362	-0.139471566496	0
6.5	0	0
4.625	0	0
5.5	0	0
4.5	0	0
4.481603306259	-0.111052305129	0
2.5	0	0
2.486482293556	-0.110456056597	0
2.625	0	0
7.828740664136	-0.157959666613	0
7.5	0	0
7.497789303332	-0.098817221798	0
8.625	0	0
8.5	0	0
8.493725508365	-0.094448160765	0
8	0	0
10.625	0	0
9.625	0	0
9.5	0	0
9.125	0	0
10.5	0	0
10	0	0
9.976983002093	-0.106037154081	0
10.125	0	0
9	0	0
8.980258705317	-0.095443922293	0
12.625	0	0
11.625	0	0
11.5	0	0
13.625	0	0
12.5	0	0
12	0	0
11.983083448534	-0.113269018621	0
12.125	0	0
15.125	0	0
13.5	0	0
13.125	0	0
14.625	0	0
14.5	0	0
15	0	0
11.125	0	0
14	0	0
13.984735949845	-0.103165953766	0
14.125	0	0
13	0	0
12.987740386932	-0.109238757727	0
11	0	0
10.980033547654	-0.110118532971	0
7	0	0
7.012790729926	-0.096165366155	0
15.625	0	0
15.653391866104	-0.184257106926	0
15.75	0	0
16.25	0	0
16.151956269841	-0.190746813766	0
16.328162175541	-0.125534698515	0
15.827345422636	-0.12109528269	0
15.881623705918	-0.315197408181	0
15.9768075603	-0.104841845177	0
17.25	0	0
17.155473725888	-0.187015736188	0
17.328334720487	-0.12053442359	0
17.375	0	0
16.97978281674	-0.105790715925	0
16.830585534618	-0.124270763258	0
16.892220832712	-0.321708894118	0
16.75	0	0
16.655725821363	-0.19281499559	0
18.25	0	0
18.144056513649	-0.199584109463	0
18.322695877645	-0.133173012767	0
18.375	0	0
19.25	0	0
19.156955168382	-0.212194778097	0
19.332395147696	-0.137501625504	0
19.375	0	0
18.978107771567	-0.118463258117	0
18.827251646435	-0.137822523984	0
18.884674261801	-0.359498065923	0
18.75	0	0
18.648603260315	-0.210400354993	0
17.973004229039	-0.108213471414	0
17.823362138939	-0.124125311933	0
17.87020700187	-0.324156104502	0
17.75	0	0
17.64837652944	-0.187413016584	0
20.25	0	0
20.167288289523	-0.206556633625	0
20.33799343326	-0.133667464393	0
20.375	0	0
21.25	0	0
21.172020853715	-0.201327641466	0
21.340729826518	-0.130206344264	0
20.875	0	0
20.75	0	0
20.839555732676	-0.132066213667	0
20.987710400762	-0.112937783384	0
20.915843633601	-0.342386775443	0
20.669904108595	-0.203936882105	0
22.25	0	0
22.168893714495	-0.194483818359	0
22.337089427477	-0.126591453251	0
21.875	0	0
21.75	0	0
21.840184239699	-0.127666317168	0
23.25	0	0
23.162361450448	-0.215073727418	0
23.335945395372	-0.148199257458	0
22.875	0	0
22.75	0	0
22.83504078106	-0.133126573368	0
27.412614995451	-0.337768305098	0
27.406417478875	-0.760610856776	0
27.663031754041	-0.476449210851	0
23.674319496044	-0.139602731619	0
23.75	0	0
23.625	0	0
22.902876337082	-0.348446434986	0
22.664415839639	-0.19979598046	0
21.987454968006	-0.109075483352	0
21.916658702332	-0.330379709848	0
21.67241042914	-0.19774510361	0
19.984830323221	-0.115851903278	0
19.835879034474	-0.135573032779	0
19.906686139011	-0.351521653308	0
19.75	0	0
19.663378765328	-0.209646647928	0
24.75	0	0
24.672305039303	-0.121865624882	0
24.84054616259	-0.178479133746	0
24.25	0	0
24.125	0	0
24.179559510218	-0.145425217914	0
25.656694723316	-0.141492417978	0
25.75	0	0
25.625	0	0
25.25	0	0
25.125	0	0
25.159224348757	-0.109007087058	0
22.647257188685	-0.476376729768	0
22.872248033711	-0.780455516934	0
25.317652966423	-0.167196322239	0
31.908525182248	-0.237434634112	0
32.248547795208	-0.367887731521	0
32.025	0	0
26.398062594932	-0.327144710524	0
26.335089901602	-0.124890632532	0
26.169730315141	-0.188549564961	0
26.75	0	0
26.662500836065	-0.197477656933	0
26.835401004001	-0.129534360312	0
26.375	0	0
26.25	0	0
27.486869476066	-0.111474770432	0
27.338367230812	-0.130187170762	0
23.816158307302	-0.168335740772	0
23.875	0	0
24.625	0	0
27.75	0	0
27.67023663024	-0.198727549038	0
27.839431305592	-0.128541986375	0
27.375	0	0
27.25	0	0
28.75	0	0
28.666013303123	-0.192953151514	0
28.835335299513	-0.125393524551	0
28.875	0	0
28.41074998604	-0.32692743598	0
28.485854239984	-0.108071323096	0
28.338261561589	-0.126341817439	0
28.25	0	0
28.169650699531	-0.195402875109	0
29.75	0	0
29.656991685033	-0.201213204108	0
29.830700495316	-0.13323291855	0
29.875	0	0
30.75	0	0
30.665605116896	-0.213760177502	0
30.837855425721	-0.139272404211	0
30.875	0	0
30.987248292653	-0.119871959545	0
30.911614165903	-0.362389547989	0
31.25	0	0
31.174363802618	-0.217041176186	0
31.346460135447	-0.143418487957	0
30.400599561582	-0.360265197586	0
30.483280501431	-0.118794220148	0
30.3336351656	-0.137924489201	0
30.25	0	0
30.159375273254	-0.21004086356	0
29.392934647931	-0.331414044449	0
29.48031118177	-0.110263057575	0
29.331777210358	-0.127344913482	0
29.25	0	0
29.160548153072	-0.194064979946	0
27.167334579456	-0.200440763045	0
24.359650796728	-0.20304719459	0
-0.25	0	0
-0.404335947278	-0.221464959739	0
16.125	0	0
16	0	0
17.125	0	0
17	0	0
16.5	0	0
16.478267427857	-0.108008273171	0
16.625	0	0
18.125	0	0
18	0	0
19.125	0	0
19	0	0
18.5	0	0
18.473681471998	-0.115768873419	0
18.625	0	0
17.5	0	0
17.47687846862	-0.103462148239	0
17.625	0	0
20.125	0	0
20	0	0
21.125	0	0
21	0	0
20.5	0	0
20.486446843971	-0.114298370976	0
20.625	0	0
22.125	0	0
22	0	0
23.125	0	0
23	0	0
22.983281399654	-0.116385827149	0
23.5	0	0
23.509214189908	-0.149359691049	0
22.625	0	0
22.5	0	0
22.48467632496	-0.1093719097	0
21.5	0	0
21.488472844532	-0.111208801785	0
21.625	0	0
19.5	0	0
19.482219828947	-0.117572233456	0
19.625	0	0
24.5	0	0
24.525433875838	-0.108080714825	0
25.824234283709	-0.149177038136	0
25.5	0	0
25.498573523516	-0.096586408813	0
25	0	0
25.014769107289	-0.095147895568	0
21.919931345447	-0.741308582321	0
22.160361550711	-0.463896476278	0
26.625	0	0
26.5	0	0
26.482631880244	-0.108512805864	0
27.625	0	0
27.5	0	0
27	0	0
26.984612185119	-0.111680714924	0
27.125	0	0
26.125	0	0
26	0	0
25.990349817319	-0.10847866492	0
28.125	0	0
28.625	0	0
28.5	0	0
30.625	0	0
29.625	0	0
29.5	0	0
29	0	0
28.983089608831	-0.107750428826	0
29.125	0	0
30.125	0	0
30.5	0	0
31.63125	0	0
31.5	0	0
31.494696987447	-0.123712578064	0
23.671261205816	-0.380102168636	0
31	0	0
31.125	0	0
30	0	0
29.980228243528	-0.115525062547	0
28	0	0
[...]
CELL_DATA 2263
SCALARS 1000.00_1.44 double 1
LOOKUP_TABLE default
7.9275979379377 6.4730788208313 6.506269396373 7.3679018569458 6.517617367098 7.8547639715678 7.9661706069611 8.5414283124115 8.5231730403636 8.5657979565943 8.565303946745 7.7438810156618 7.2226370921916 7.0367389984593 8.0437806985115 8.1277167614987 6.7429026826599 6.9310753340362 6.6647607815502 7.9836556541283 8.3265071303489 7.2710778911486 7.7363619249774 7.0318919729151 6.9344319335644 7.981687593097 7.8379138688221 8.0865076182851 8.2472466837264 8.5595006024834 8.143830172503 8.4667860060346 6.8904282097502 9.5764070378985 9.0631168286246 8.440982314431 9.1353672055276 8.9396233943337 8.3891606932296 9.6025700696685 9.2676517570058 8.3341540234945 9.1466660849513 9.3212993356481 8.4362874646217 8.9671747380132 8.9976132544596 8.7697452637306 8.7141498825021 8.9044822599953 9.1135529890992 8.8918454813181 9.1013729300342 8.8196120914569 9.1223911635091 8.6680019426211 8.6106832822223 8.8788661352738 9.1410061048004 8.9210196521556 8.8902736579788 9.6422687669255 8.9172727309444 8.5527931905169 8.2644880087311 6.5827660829765 6.4833693623392 6.1483749392646 7.7462383596726 7.5733710631436 8.5272704086049 8.7383672571707 8.3721316608635 8.6206472962599 6.9137567825256 6.4204713000125 7.2162020916473 7.6169258621365 6.6154887627728 7.432634435302 6.7116692982484 7.9546136881042 7.809397064423 8.1850254065633 7.7885316273475 7.6310406882619 6.9676469887598 8.2181484829187 8.0346914327411 7.8862120021484 8.2971636027974 7.9854739357195 8.5690969626892 7.137920280135 8.5185751199805 8.6061582111238 9.20521026885 9.7380799661979 9.0371495119182 9.6824619767268 9.6207545919695 8.682163581052 8.6449483257331 9.5814279742529 9.0633865454516 9.0745485568455 9.1408136476922 8.9123024897984 8.6837788143756 9.2248007192076 8.9186196377856 8.7459258920144 9.2286723226385 9.2632358591517 8.8259943675225 9.1251817929585 8.7922907879752 9.3434750215961 8.8796173809373 8.9907050747547 9.2852020662017 9.2351324546768 8.8780482202969 9.0864649406853 9.3520864456551 9.1116724730648 7.9766267089853 8.3438662177728 8.9332170872645 8.7865121648233 8.8127494032567 8.6564337770886 8.6629186742954 9.4804142099365 9.6415472814624 7.4726963922049 7.3623737713456 9.3435282741841 9.5494836380565 8.1696267290661 7.9736799368088 8.52887074914 8.9814219381168 10.64184333801 10.678350344477 7.6544749258102 8.9408539384839 8.4970938900866 9.1069381302697 8.7345433063756 8.5528744800152 8.6785941064166 8.4452610272423 6.5726785640691 8.235239159431 8.3953104449944 8.4467247311853 8.5560855285525 8.3997425031193 9.6920526870408 9.3599856547158 8.1520164597971 7.4080112504311 8.7977215029161 8.2891184795597 7.4446692115634 8.317493818391 6.2579524872321 7.8963738608157 7.2956522822302 7.9880340313759 7.1863436086804 8.0253196625741 8.0615833960284 8.0848503706949 7.7491194190518 7.173825999012 8.3739275623303 8.4204203562122 8.1936902456059 8.1296679490353 8.2049046749194 8.1254949104221 7.1361521754309 7.1401142837594 7.0374355790159 6.6027543772751 7.2033953082651 7.2912107262855 8.4982306188563 8.6418086461669 7.1321869386413 7.3996191840114 6.4393719039078 8.7926267296882 8.6384068159647 9.1243151069567 9.4079646689558 9.0333710224578 9.5746196927024 8.2551661432907 9.1917942285629 8.7717546671911 7.6144104512212 7.7126121861557 9.3328616404058 8.6443460528072 9.24854259215 10.437676889214 7.7106065297459 8.1724792557271 10.18013492794 10.720673729343 8.7351112585765 8.788964517171 8.1130948210033 8.8145856461024 8.5339574848518 8.5049680627401 8.7509176422741 8.7877919277171 8.0440479471897 9.4615943075162 9.4555403329272 7.8611489526358 9.2764237116738 7.8745141667558 8.7082554783046 8.8269267898092 8.3934703683119 7.4588049376613 7.4644496533041 7.7814613182027 7.6508938675689 7.4481275717256 7.1924344183576 8.270508358532 8.5802535913016 8.0924952752625 8.3673495652004 7.1636261471081 8.6197287915865 8.6860228062159 8.3933845378876 7.3811277190325 7.2290201975769 7.1452172741742 6.6952807392102 8.0210734442399 6.9183080331075 8.6962813446934 7.6808178217729 6.6632782196581 8.0666327308529 8.3628174683653 7.6347336313771 8.2736147059213 6.6204090112827 8.6350709122541 6.4484458324789 7.2603680065212 6.722794479517 7.6439627243994 8.2357253350229 8.6730324788566 8.53958912104 8.4434618567384 8.7343543581943 7.0324989069301 7.4971804825467 7.3974885352448 6.8142358091526 7.6686385455123 8.4544718578644 6.6387831443601 7.1091011290729 8.0632870722794 8.1090820961823 7.6502860771324 7.0472349592859 6.807108982544 7.5600144251898 7.8472514218724 7.6826652698507 8.2064271003292 8.3654775513021 8.456626457644 7.7900646184449 8.942920969652 9.7342579179544 9.3298222624806 8.7244509425465 9.6257528315727 8.7895595346195 9.124032121038 9.5886458650768 9.5850047633487 9.0288489155337 9.5019109222771 8.8967077928837 8.4200913954096 9.2023756978087 8.9886240791954 8.630373282328 9.0654247678049 9.2231131214442 8.951726033985 9.0500118512145 9.0926465185819 9.260705619532 8.6224052824296 8.8431412882734 8.5157510934644 9.3104170265329 9.1723844176246 8.8075770897227 9.1809286673808 9.162183150625 9.0580646064004 9.4762569669115 8.8121308487212 6.3564944795169 8.6824169807408 9.2030907269487 8.6224265204177 9.3225791858402 8.8623803648598 9.0145895467895 9.4647893495875 9.6208551554702 7.9778677721638 7.4066989706263 8.9310625400515 9.6934569149687 7.7173891664766 8.5260000609546 9.3763613629053 8.4650944042128 10.573783455282 10.48072989031 7.899124533302 7.903698859214 9.7801111404432 8.5271195112463 8.7512687923393 8.842667497097 8.8097063696627 8.6237430513003 8.0846476104837 7.8140823707294 8.6274106112765 8.6421844059033 8.1402116423867 8.8045466397935 9.3156537530987 10.03305661239 8.8365676972977 8.5053405216265 8.5228085403755 8.609205423139 7.8590861239369 8.6703165640777 7.6226309049074 7.1706006256642 8.4289237206026 7.8473978477082 7.5219098160092 8.0632884014771 8.3552249437914 8.5851544038804 8.0605971195214 8.3373567169382 8.4954644764696 7.8824743165502 7.1863341466041 7.0708384093282 6.7991949269599 6.5942412405174 7.5019555409312 7.2566508729563 8.6891521449526 8.6312081351282 7.1534902511891 7.337959227681 8.001896515725 7.7306580865793 6.4771281714967 6.5329527384728 6.5985279130362 6.5947726027162 6.6667182449414 7.3855223236098 7.3094877608329 8.0911546235403 8.6299484082936 6.9538891787851 7.4762571073598 8.0614041097467 6.8534628559693 6.681898666214 6.9599663582956 8.3193254622612 7.0451878165769 8.0198920593718 7.4457590848338 6.8025665416927 7.5503375913759 7.3692339021117 7.9206104251423 6.777127539259 8.0555125387779 8.6252065087859 8.1892065579989 5.7508308003113 7.2093458459273 8.1257490584111 8.5242293871656 8.4155299852997 8.5022540141189 9.5151615410286 9.562801382562 9.0293709025994 7.9448079125285 7.9931305480661 8.1767318380367 8.8709581233319 9.2521444536543 8.5517015493601 8.4723999486894 8.8800319427535 9.2117080508749 9.4014646288887 8.8902592494175 8.0604138491924 9.1154156688965 8.8274906892031 9.0248182028931 8.8485560337201 8.9855846382 8.5375971726008 9.086905935601 8.5622230172715 9.0974954483533 9.232799866636 9.1039708617827 9.0765155579341 8.4965023216727 8.8337086084526 9.3265825938148 9.4487967776995 6.9760545166611 8.4925375270144 7.8988200002865 8.9523970953106 8.2062994954663 9.1665455833049 9.7513097461166 7.6253774536739 8.5834827460985 9.047045735008 8.8169921325323 7.9561088871483 8.1267411979778 9.1706196618963 8.1443312265934 7.381792393485 9.1755161068357 9.0010058720572 9.4872227882431 7.6739523758467 7.5722739234041 8.7761067066977 9.9252512850271 10.164323200742 8.1542335049051 8.6676273363731 8.5390027441044 7.6325643175801 8.5074995285586 8.6009277694706 8.5799693118738 8.7107546532286 8.0726328577859 7.7813395793258 8.3838885061333 9.3001173499056 8.535245700032 8.6647007109821 7.4566962821452 7.2190863224518 8.0025928463045 7.3171570283643 7.7914488834539 7.8734327871644 8.3404388399578 8.3671703643076 7.0641129239432 7.9095868136576 8.1940773698974 7.8470999929408 7.2737400567211 7.8519964109731 8.6413836171128 6.923870859479 7.2669857402463 6.5499146031626 7.1395300837332 6.3761045096201 8.3659071246798 7.8348637931546 8.2122369819975 8.4350972545723 7.8242172339121 7.1519909526825 8.389553694517 7.4224220391461 6.2368947850752 6.256762305018 6.7182925888235 6.4059861005222 6.577501411826 6.6067466007451 7.8629183954876 8.0756508747901 8.3818856248158 8.5128810781242 8.4478463770483 8.6666653498259 7.2120367147301 7.3849961317133 6.8708986696153 6.8811296754444 7.9153287516411 8.3707964148844 6.7241063765348 6.8783863671415 6.4944019719996 8.072969437315 8.4990218734603 7.1720403373459 6.5137947280952 7.0373946545127 7.284089326937 7.7208292367415 7.587865713317 8.3504941769691 7.8553152058321 7.9167827617744 8.2398429632841 8.7698291576155 8.474011064687 9.4402288773619 7.1120552764473 9.4640516821152 8.7351688849073 9.0507268766166 9.389513264018 9.6225874191972 9.0648503463273 9.3534396883153 8.3849729513374 8.3380711960045 8.8014243878278 8.9004729337384 8.6396100441306 8.9949283528907 8.6926785180714 9.0036588074791 8.9726034841578 8.9748070591119 8.602576766654 8.5956277113386 8.2321384078598 8.4669671877565 9.0762299787027 9.1095423463723 8.9385750412897 9.1012638722316 8.9179812375668 8.9598302282904 8.0567082747292 8.7552843545212 8.635173057913 9.2054924716691 8.7819658590836 9.1191652893845 8.8634720977903 8.8322513387512 9.4092166089816 9.7269228146841 7.3930513020261 7.3489437720701 9.0422716737154 9.6070822974318 7.8777484430875 8.2697168437617 8.7087363270833 8.6473357942494 10.120814967162 10.570520342173 7.6529038822416 7.762165775994 8.6766880462967 8.7459786258221 8.6150384883403 8.8115593430661 8.0690873564106 8.6278550706547 6.5345783613462 7.9098988388242 8.1301402147578 8.5181974776264 8.3249093654165 8.6641882888725 9.3511226759063 9.7003617039743 6.9811946907576 8.3365034093402 7.9455475983402 8.6226761880503 7.1681386151634 8.3748038251459 7.6205839907124 7.1776454933444 7.5814846761708 7.9125915192565 7.6592854484267 7.9507463507714 8.3053725101963 8.4798090437771 8.0580167355042 8.2522081452287 7.9292386032884 8.0014420457264 7.0447338027266 7.1185141469313 6.6336520096636 6.5697700335332 7.2028606384719 7.2550195289413 8.4616437045442 8.6204271166475 7.0577438102734 7.2251929717503 7.1601065183473 7.4690566679899 6.3434258922536 8.1937684560003 7.2984258871778 8.3019268010686 8.0410708283896 6.6649349826413 7.5729472044312 7.9516839301654 6.8196584774473 6.8100885206481 7.6013476960097 8.046359595137 7.2447662554185 6.7842364741582 6.7864761232812 6.4875460788734 9.2194226453252 8.1084193183746 7.9610382041879 8.1839934575511 7.6425085664386 8.7967316731241 7.4045316179465 8.7872987796726 9.1600251360295 8.5309439840504 7.4444951270708 7.7517430681692 7.7778044654519 9.3340503454238 8.4982818448105 8.8452116724962 7.0305436979245 9.1485975903215 8.349139350551 9.2412453872392 8.9017312376201 8.8297850941477 8.2344084818687 8.4702050329502 7.1911686959321 7.0564394811562 7.7866887867842 8.7873580272405 8.1276352521967 9.1799201584086 7.5240845599497 8.2238034611512 8.3747976346606 8.4937218590537 7.6593125305474 7.7370040405254 7.7989677727556 8.1536267879931 8.198223197508 8.86199924764 7.7026922118938 8.5027635427442 8.2474335567497 8.7742032713941 8.285923393345 8.7558181582522 7.2202361090237 8.8294915294411 7.3344600296883 9.1771947371925 8.7653859298921 7.4386286990467 7.7875918638786 8.7610966790522 6.9149156717714 9.1792395097184 8.161732461501 9.7105665867658 6.9104273638108 7.1982520276542 8.301589594415 8.7294150133859 8.102159521602 7.8910453555601 7.461186576269 8.6006184094642 7.4607348981899 8.6561060963455 8.5698204024622 7.0101147598766 8.1540121206852 5.2707867944064 7.0808219797552 6.7438941838193 6.0896986692897 7.3462914861776 6.6374224716332 7.6556731485179 7.5059442229606 8.5989942880434 6.2649204446861 8.4045155373153 8.3509864567269 7.1283790765738 8.1992129421596 8.096681536645 8.3293788160817 7.8923581146686 8.3017014771679 7.8789503648222 6.7749468845624 8.4744620450853 7.950826602827 7.5655299313605 7.1910084239715 7.6008873203739 7.1509142294632 6.9089127133973 6.6185774956706 6.6139977161106 6.3246536160073 6.2401374839432 6.7595152434749 7.1982159798861 7.5277063682606 8.0994693838425 7.7198815331545 8.4859038673267 6.8719091299917 7.1454574334897 6.0248411336389 6.253406948736 6.968556534969 6.5090251949805 6.2786233606421 7.1267540912805 6.3882048781929 6.5114493917932 6.4446582152965 6.6387085884352 5.8802417976422 6.3783983827372 6.1356111121319 8.0251666333844 6.0019613216356 7.5112500598064 7.5762999451551 6.9306408087181 6.9819834200809 6.3329584613309 6.8646473744341 6.5082825496957 8.3915724904936 6.3789426466149 6.2827723454489 7.2637411332312 7.2989059342108 8.0072449324768 6.8164173803617 6.9577806896921 9.0932642629762 5.3743058957793 7.8239511146426 6.3376407916048 7.6225994069626 6.9539655633741 6.7319721522665 7.0634369060332 7.3236770500313 6.9211211677199 8.0401032599615 6.9734381503059 6.2583760193108 8.5563058783162 8.0316070104289 8.5664869595533 8.1606902582508 9.0497226656466 7.1977667121912 8.7514090227766 7.4945910190761 8.1666668886947 7.3401610901588 8.4618118964576 7.5079662561229 8.3647123524812 7.8640746314585 8.8093552940637 7.4827463686518 8.8077577158371 8.3790759541634 8.5867630999607 8.1746543352844 7.0949550722488 7.794899853391 8.6881915867382 8.0967661102384 7.6341358607014 7.0680066974344 5.0071048629873 7.291451818415 6.1856496616696 7.6469490974075 6.8828811574956 8.2609541060273 7.1941614492262 8.2529703276775 8.8547993287824 7.4541618321071 7.463454479731 7.9846345653598 7.311168641392 8.1131984289134 7.3725782910657 7.1139868328659 8.5454230655972 7.7894052958853 7.8022091266039 6.3860216345445 8.3708116695456 7.6909952070319 9.2079411913734 7.2292299537557 7.6863436246264 7.6022782835512 8.1798764720891 7.273744122744 7.0980681466921 8.3651951360942 7.7795081272814 6.7131808985616 5.6584051511345 7.3921840450488 8.6851693046153 7.9732600833135 6.7280026203759 7.0485324902665 7.0467728762076 8.7040804083592 7.938109730341 5.433641874586 7.571906667358 7.2864934084114 5.5413407316254 7.0089289869895 7.6759395127903 5.8413127798763 6.7718207425898 7.3871856240829 6.8931335121505 6.3065306330265 7.0900471061806 6.7051935555103 7.7091459231418 6.9879218295483 8.0922845571079 7.5380694194673 7.0310431806036 6.5631899964268 7.0540479051547 7.9645947498759 8.3329417500033 7.0249263826512 6.6354118301011 6.3095023070332 7.961483587074 5.5226317628874 7.4321821939908 7.4250496838997 6.4728844428997 5.974404298485 6.4439679225413 5.2031984206028 5.3014301882599 8.1497970001272 6.1935363273434 8.2551081936716 6.5623891607197 6.2625752963543 6.4330812495492 7.4836030372712 6.7796954887409 7.1050682833424 7.8673599491228 7.2862126102787 6.2050199970704 7.6467133187291 6.7188857459757 5.3545821727158 5.9175782974439 6.1933405978889 7.3810589122212 5.9416472811971 7.7634869202463 7.8477992143105 7.0361193802259 7.8603530991775 8.3230444354962 7.1969351101055 5.4311147819246 6.9351406221093 7.6838715716797 5.2416081723264 8.0680477782758 6.800830521934 6.6089225493334 8.2845870420897 6.0137530236905 7.8540940104735 5.6582299739121 7.85062383364 6.0121059890691 7.5017912460011 5.5906627829507 7.3698462237752 5.6978544402696 8.2278474697287 5.079664952044 7.6142752709081 7.579502815322 5.1521981114695 3.9407120730457 6.050115535642 6.5629999431984 6.8118399290804 5.7058627108648 7.5340063143367 5.9395500572542 8.3009966595618 5.9126164730479 5.8022580061473 7.0875252554338 5.6827476971736 6.8172055205836 5.8123536475606 6.5009806370878 6.745503002963 6.0057259282063 8.2577902098529 6.1679479160571 7.5560929860374 7.930627497749 6.709002671911 5.7670377637485 6.8018006165425 5.0222196751664 7.3327920891825 7.6047777471424 7.1149780801573 7.8991158459978 7.048657877406 4.6567512047107 7.7473980820939 5.6690235747586 7.3838092796092 5.505894181309 7.6754406192234 5.3931098978011 7.144302847806 7.0628932729218 5.5836710901707 6.4590881293503 7.2354072823438 6.8645586610311 6.471726483661 6.5678677645248 5.8447820645681 6.4263715642997 5.8477797481705 5.9406852514175 7.4542014847865 5.7660603000847 6.915089398383 4.5766326861061 7.5850827658212 5.3589418241749 7.1486538354622 7.4786585075191 7.5816121410211 6.7449132860395 8.451052430842 6.3218867275187 7.305464864193 6.5659245495473 5.9431326470082 5.0821365489376 6.8274187755065 5.2979884939268 4.9873951937138 5.8532378571283 5.3497457926501 6.0136354229138 5.5640089650917 5.715719546135 4.2415327746561 5.8960585473425 5.72885756883 5.9378014687439 5.9933626683349 5.854378837571 4.8606169521632 5.7348939320765 5.8085818088015 5.9495220270779 5.8160486320915 5.2977868393885 5.9604442983138 5.9875936534057 5.9138701637499 7.0807065591058 5.9961153035993 5.7434280867734 5.7371737484873 5.6888353544866 6.002414345331 5.409100012302 6.6886029299819 7.2988137294943 7.2122762741148 6.9536601964027 5.261908428883 6.5096880298079 6.0612687744301 7.2797448650913 5.7661772788618 5.2231737683248 6.9722945297985 5.8544091378414 5.0668102493823 6.0209128491792 6.5665296594297 5.4071403810941 5.3992005859103 5.9847810065654 5.38794976676 4.5031529509846 5.4312562902789 5.0696554985951 5.0588599257566 4.5227324278185 4.6294113248674 5.9698437155866 4.8288418624745 4.2289143374239 3.9860854315181 3.6652049575446 4.2378010601286 4.4222442604066 6.1481074163463 6.5530154646516 6.1207092368617 6.2815273967554 8.3918209235757 5.1419276044272 5.7860725996222 5.7465806492116 7.0382551587288 7.6784025540735 5.3509567208072 5.600862270827 6.1689053172824 7.3795632060195 5.8716911727701 5.7001862877111 7.1887752414365 6.0645646157664 4.858666003039 5.2419243600535 5.2680395169305 5.1106328165304 4.3809091994673 5.1246948009006 4.5241337311922 5.6443909603686 6.0187738394215 5.9949380104775 5.0946023308192 5.8253216073134 5.9185426455925 5.6230737914527 5.0737619823571 5.1919767543689 5.1399417664337 6.2193340035082 5.0549726389861 3.7894013091978 6.1764048248812 5.5276000662073 4.8062955934318 4.6843742868314 5.0887950480665 4.6094231953545 4.4306285102783 5.6140827398651 6.2791350155056 6.3129864771408 4.600830687463 3.9432603938117 5.0012715981628 5.797920694533 5.8635566777733 5.8664024418336 6.1806545209801 5.2851379837827 5.3889284529794 4.7501044444557 4.559480449378 4.1969774290996 4.5391513255146 5.2542012722371 4.1468414827921 3.8149953720014 4.7917215677442 4.0966135831068 4.4057569615339 5.1105745265329 4.4791909107612 5.0879025634074 5.3039712525448 5.7759843915137 5.8502236176631 5.1162919792266 5.535026774672 6.0039103970536 5.0350567283596 3.6309825656612 5.7420461250615 5.7281637822272 5.810068574784 4.6179652284827 5.8695954764003 5.3745775776967 5.325888202432 5.5934513199038 4.9524592403201 4.3528864245793 5.150221838907 4.5477747192866 6.3730941791038 5.8934806198949 4.6377816081965 5.3671970223025 4.6754009093546 5.1739707635475 5.6367424642557 6.1267547473633 4.6913545421686 5.0256033863362 3.8130122521332 4.8691447998393 4.4161525427339 6.1766710194655 5.1428863247778 5.3893490552082 4.6634980824701 4.2071408296303 5.2547982144578 4.5811536812508 5.2462573944796 4.1837553773556 4.1805506005425 5.8000249700586 4.882423934971 4.2645284115278 5.6807171683459 4.8612628585728 5.6081031757558 4.3975144252604 4.9588231679021 4.953780968775 4.4065598553518 5.4197909623539 5.1003524804077 6.1418005226062 5.3050771625583 5.5812512910612 5.4892947451303 5.843338719909 5.7784708288378 5.8431173835979 5.1596519252507 5.9505403396123 5.145947644484 4.4388644611126 4.0919756781044 4.4922230128229 4.6742354460517 4.6554349359877 4.7388578827028 4.1564450037257 5.4769293036888 5.8114406645982 3.7018076896332 4.4328102133657 5.0408018577716 4.2470827969715 5.438985911496 4.5629181642734 4.5667782027965 3.8362281898666 4.9062619026204 3.8593276034287 3.9201685275163 4.5655186060962 4.2123650124155 4.7113381719618 5.3900319595017 4.756200297554 3.8839813486189 4.0869674093778 4.378281187332 5.2130414774546 