# vtk DataFile Version 3.0
d-2__ created by libgimli-v1.1.0
ASCII
DATASET UNSTRUCTURED_GRID
POINTS 570 double
14.5	0	0
14.25	0	0
14.386963504964	-0.201738469428	0
22.399299936458	-0.310870122736	0
22.129824335287	-0.229914148082	0
22.126320781198	-0.518791771445	0
8.472303742627	-0.591754876635	0
8.780507935475	-0.76092407121	0
8.82173151259	-0.349253271447	0
18.663262297679	-0.667179415955	0
18.934786529245	-0.453308328646	0
18.636898038907	-0.29588182328	0
4.016904362632	-0.85330676142	0
4.076038737616	-0.331410355179	0
3.713721571226	-0.470767763626	0
1.89953779852	-0.269343012166	0
1.633800503821	-0.203067612233	0
1.644492760828	-0.441295523531	0
4.368408037607	-0.250833874131	0
4.337474161742	-0.544420985055	0
4.67745607622	-0.378433532554	0
1.406172533733	-0.772361039307	0
1.913288206557	-1.218576310882	0
1.90687689783	-0.651895683444	0
2.5	0	0
2.25	0	0
2.347047126858	-0.185539804102	0
1.374000926997	-0.300418771701	0
1.25	0	0
1.114902662369	-0.201591505098	0
1.067401015567	-0.470108640981	0
5.75	0	0
5.699780065382	-0.324747799653	0
5.924584257371	-0.172748359932	0
0.883560935405	-0.231136840652	0
1	0	0
9	0	0
9.117836368049	-0.253904480787	0
2.625577516194	-0.346770599322	0
17.859079774019	-0.943547525024	0
17.535029634209	-1.703182852412	0
18.338018094476	-1.366069799339	0
19.932263871771	-0.826489183604	0
19.881635677668	-0.346204516721	0
19.622287080959	-0.573770479943	0
1.5	0	0
1.75	0	0
23.25	0	0
23	0	0
23.109690227386	-0.220340974338	0
2.75	0	0
2.142562771237	-0.172460438312	0
2	0	0
23.332392704446	-0.202507275941	0
23.5	0	0
19	0	0
18.75	0	0
18.888143078348	-0.195773419804	0
2.90152418742	-0.185685383897	0
7.612175045312	-0.180627982114	0
7.527150943175	-0.401430797998	0
7.881917737402	-0.30462800112	0
25.630635194756	-0.512020961038	0
25.243766894324	-0.80097755811	0
25.758031115142	-0.952821630144	0
3	0	0
28.84859809239	-0.201276387394	0
29	0	0
28.75	0	0
4	0	0
3.835807353334	-0.199536243303	0
3.106904732949	-0.178783649348	0
29.25	0	0
29.092446172194	-0.305987136665	0
13.5	0	0
13.667851890428	-0.185102765244	0
13.75	0	0
3.75	0	0
14.407363653886	-0.441423674912	0
14.125469935998	-0.279652141152	0
4.25	0	0
5.061980176718	-0.407989246181	0
5.335512032876	-0.269401530321	0
5.113979852892	-0.173834924157	0
11.882046000841	-0.812345557852	0
12.478640631525	-1.146569360669	0
12.244190771573	-0.565936619511	0
3.633270844505	-0.195395238442	0
14	0	0
18.378272976509	-0.514977451159	0
5.5	0	0
9.619519097921	-1.16461851757	0
10.030576753886	-1.587265312651	0
9.961661342999	-1.070235523667	0
5.25	0	0
5	0	0
13.157975569138	-0.830425793913	0
13.83833027638	-1.238601004239	0
13.671302359608	-0.710707966059	0
11.325917093147	-0.8366783502	0
11.612143285947	-0.506264798476	0
6	0	0
7	0	0
6.83842404292	-0.188923754932	0
7.11236984822	-0.391746146843	0
6.631875629497	-0.169178192832	0
6.75	0	0
3.21002197083	-0.595267231049	0
3.445510026908	-0.608065324465	0
3.362318141622	-0.306501255187	0
6.120159502895	-0.164221934939	0
4.538525595924	-0.906226152762	0
13.233775457127	-1.737244787017	0
4.5	0	0
16.138065841822	-0.472802517973	0
16.126746690205	-0.221608117926	0
15.859319180798	-0.326402762318	0
26.080401003391	-0.227842452866	0
26.25	0	0
26	0	0
3.019224421113	-0.401469974918	0
8.234901607028	-0.35771789179	0
8.518285578354	-0.242327591839	0
8.328777073389	-0.153008859619	0
7.25	0	0
7.400656881666	-0.195280611572	0
7.5	0	0
5.385509485898	-0.709154879541	0
5.948697127931	-0.745234910621	0
8.75	0	0
8.5	0	0
8.25	0	0
2.214249105773	-0.404278959534	0
2.896561357202	-0.792481120253	0
9.25	0	0
4.920911116561	-0.192028847294	0
9.651670336652	-0.200847798694	0
9.849824537955	-0.19917205686	0
9.75	0	0
10.095049354068	-0.315754204277	0
10	0	0
3.25	0	0
6.738406513564	-0.710129601907	0
7.121614580011	-0.943026074581	0
11.345829942703	-0.314788260019	0
11.25	0	0
11.104427225455	-0.188863495516	0
6.052412255932	-0.372556729023	0
6.373371846535	-0.274163514827	0
10.25	0	0
10.380281579003	-0.241092027437	0
10.5	0	0
10.75	0	0
10.909079077441	-0.189427130481	0
11	0	0
6.25	0	0
6.5	0	0
4.75	0	0
3.5	0	0
10.672815698565	-0.318467932684	0
10.772487906066	-0.787092734739	0
11.020900486567	-0.439266778492	0
8	0	0
7.75	0	0
11.5	0	0
11.619450354736	-0.231443672836	0
11.75	0	0
8.139317726831	-0.163309591658	0
12.25	0	0
12.158949464947	-0.235415698299	0
12.412455385193	-0.275030800337	0
12.929165084344	-0.221336108042	0
12.686337592177	-0.258437422252	0
12.900449535554	-0.462768612232	0
12.5	0	0
9.405755833308	-0.325979504745	0
9.111697192308	-0.594170467817	0
9.457257345083	-0.753685223931	0
18.101369157139	-0.618560521812	0
18.336839281097	-0.861122419318	0
10.385948631267	-0.570640149046	0
9.5	0	0
13.411260455969	-0.342646276848	0
12.643108055516	-0.590179775368	0
13.137744715761	-0.195204172124	0
13	0	0
21.25	0	0
21.358341816502	-0.326561417551	0
21.5	0	0
13.816492716597	-0.40394453634	0
20.25	0	0
20.423452336785	-0.313445603959	0
20.5	0	0
17.789350393153	-0.390447709085	0
17.987794057246	-0.401472255242	0
17.881276545163	-0.206424156589	0
19.564465692234	-0.270867872644	0
19.290725118801	-0.49926248604	0
16.392319441256	-0.29915360323	0
19.443730892406	-0.923508713428	0
20.457987075478	-0.803203365193	0
20.167450719332	-0.505159975143	0
0.103762538371	-0.253013629949	0
0.267057015134	-0.483604909932	0
0.374713194419	-0.2320817565	0
13.25	0	0
17.415572543912	-0.230682214253	0
17.5	0	0
17.25	0	0
18.108153655084	-0.208141099276	0
18.25	0	0
18	0	0
15.75	0	0
15.544586046819	-0.246453491997	0
15.122708481244	-0.193620038745	0
15.25	0	0
15	0	0
19.75	0	0
24.149237782749	-0.319013340846	0
23.842766599446	-0.577371105011	0
24.183995039967	-0.73159476451	0
13.871646321742	-0.17394291424	0
23.862588150518	-0.245417872715	0
16.84024277193	-0.203626765466	0
16.704049384397	-0.435508179396	0
17.112673188265	-0.38804641709	0
24.75	0	0
24.832880292394	-0.290571430318	0
25	0	0
16.40158555625	-0.755912194683	0
16.850299990829	-0.757941865332	0
17.75	0	0
23.567455674596	-0.325197491724	0
16.25	0	0
16	0	0
22.645812614293	-0.197864648876	0
22.75	0	0
22.5	0	0
16.75	0	0
17	0	0
24	0	0
26.914424714815	-0.337869958787	0
26.621963281699	-0.624626679172	0
26.977877660759	-0.778408201088	0
26.622424322919	-0.264588309935	0
19.34462271879	-0.199329831305	0
19.25	0	0
19.118057075065	-0.225686869553	0
19.5	0	0
26.75	0	0
27	0	0
27.5	0	0
27.604422363523	-0.298869962794	0
27.75	0	0
17.650384190064	-0.227839036584	0
18.343198956448	-0.236734208617	0
18.5	0	0
24.25	0	0
20.143897114391	-0.233773711865	0
25.5	0	0
25.25	0	0
25.344389320279	-0.31693710653	0
21.059546193318	-0.24845941382	0
20	0	0
25.842927934822	-0.248287716678	0
25.75	0	0
25.613904645132	-0.216025146631	0
21	0	0
11.763551406169	-1.481607093928	0
30.981104050195	-0.5526690913	0
30.873880294509	-0.217692518774	0
30.706626759758	-0.34945139905	0
20.75	0	0
20.85240828135	-0.178025243856	0
23.75	0	0
20.66289882074	-0.189089155251	0
30.204950808504	-0.791758966623	0
30.715535843381	-1.149995259266	0
30.543724897762	-0.572259098027	0
30	0	0
30.180216671806	-0.343473673313	0
30.25	0	0
23.229584388362	-0.458653998547	0
29.5	0	0
29.623391954444	-0.322069028408	0
29.75	0	0
21.618913855927	-0.233585823579	0
21.75	0	0
29.348490380579	-0.521100538161	0
29.36294710412	-0.230601226356	0
22	0	0
22.25	0	0
28.25	0	0
28	0	0
28.129259193923	-0.314252106503	0
28.44374413871	-0.484576386004	0
28.100199615755	-0.812038297775	0
28.649230646972	-0.871769248311	0
28.618403654115	-0.227691192115	0
28.5	0	0
28.387848605749	-0.205892081491	0
29.054768525933	-0.708603081552	0
29.344906532636	-0.846887322836	0
26.327430876245	-0.35930637997	0
10.349120516034	-1.04150119828	0
10.894920134778	-1.514321070539	0
24.59640839418	-0.191760546865	0
12.75	0	0
24.5	0	0
13.102881121377	-0.411296235356	0
25.099388239946	-0.214879887129	0
25.97986022697	-0.52841375324	0
24.398993403151	-0.196312410538	0
17.860840746535	-0.577367743328	0
17.566481510048	-0.529340016102	0
26.5	0	0
16.637148248735	-0.188015807345	0
18.183918302467	-0.396443618316	0
27.159348252167	-0.205297590358	0
27.357530053515	-0.198815038154	0
27.25	0	0
15.060354649709	-1.112587998155	0
15.51532665618	-1.043792149387	0
15.178150912169	-0.713100616689	0
10.051363365948	-0.719159376333	0
14.661248691948	-0.27865166374	0
14.75	0	0
27.868836823455	-0.217301839861	0
31	0	0
30.75	0	0
-0.020273477909	-1.415389842481	0
1.054972770973	-1.487485199502	0
0.512583677021	-1.0438154777	0
0.75	0	0
2.361419414365	-0.794513604096	0
29.890297721653	-0.2433406165	0
30.473599299501	-0.238575611274	0
30.5	0	0
30.660802173874	-0.161931182737	0
28.783812899585	-0.467926883932	0
4.937022539393	-0.72440615077	0
6.696914540879	-0.380672503721	0
7.434272221796	-0.695675918868	0
15.339606453815	-0.166204802571	0
15.281953315711	-0.388999642276	0
11.893544445085	-0.335972898148	0
12	0	0
9.753796445798	-0.478866225926	0
7.720012958977	-0.638314519759	0
21.871398197179	-0.313006985103	0
21.615176662754	-0.521922347305	0
21.856785525528	-0.665128848631	0
20.792152536902	-0.448319093295	0
21.109577821412	-0.527879642114	0
21.360297691811	-0.734200004244	0
15.547854961707	-0.580173571081	0
24.496861814148	-0.467031445896	0
25.067351422649	-0.463427753535	0
24.81263825963	-0.684738154192	0
22.865620821195	-0.218348593093	0
23.443705587002	-0.773171720633	0
27.277617447467	-0.489224417775	0
27.863714790534	-0.471681393437	0
26.239117668995	-0.863279739365	0
29.896797054636	-0.547765129844	0
29.612773839625	-0.699757135752	0
29.867172666547	-0.87444432816	0
29.610354212963	-1.521444655905	0
29.59548165142	-1.071765512911	0
29.115129171034	-1.220660174798	0
31.345359428525	-0.458952144926	0
31.144859415042	-0.241304201582	0
15.919565295974	-0.746550096707	0
16.063006820294	-1.289595303187	0
16.5	0	0
14.900855313538	-0.178071167744	0
14.161016743654	-0.72559708689	0
19.011498044983	-0.834202892304	0
16.760433281999	-1.263698818643	0
17.280361389946	-0.931704507314	0
-0.627742252535	-0.296285438777	0
-1	0	0
-1	-0.5	0
0.625738545692	-0.228405936136	0
0.5	0	0
3.313957665883	-0.865581185485	0
3.619156095452	-0.800599314657	0
[...]
CELL_DATA 986
SCALARS 20.00_0.37 double 1
LOOKUP_TABLE default
6.1420519729467 8.6903074613421 8.1469794442923 5.4725225111661 4.4937601099465 8.6495594552689 9.0078784015122 5.1331048532569 9.7182084365211 8.7092100146164 8.9211746321095 7.1587715639676 13.658072705152 17.001061734281 11.241316926086 7.6964315567203 4.194816655341 8.8422526723832 7.5293701860588 6.332111203372 10.023491023271 10.310778673788 8.2800498323891 9.6252771696295 39.456821221523 7.6335691533115 9.5649837272431 4.885343524854 5.9084172888246 10.884232707904 8.2913735713047 13.149133119131 7.9329789494282 14.050670528891 3.3278877629496 12.025262547779 20.720303907093 9.4172686509416 3.896529868746 3.3857569329333 6.4186595199413 3.2853138089474 11.496309784875 3.8222680201163 16.05879064358 11.426430369215 5.4384490313462 5.5714454479685 6.1167861089683 9.5383649547742 9.7202076720406 3.9080233262742 4.486014717042 12.716116492074 6.0502800006571 6.4308265159435 3.7910559994984 26.689191863717 7.9723501638701 4.3187552220065 6.7898690819253 8.6508365506793 13.13510989204 7.4612731762143 26.716031368185 24.810503055388 6.8314233887603 6.6323575638703 9.9489596732051 11.603212481213 9.0396952580145 18.614505467196 28.613869030708 13.648309485472 10.619586608053 7.0620784182245 21.224023002473 10.830940180874 16.849459547116 19.261292953271 24.981149577478 4.2362910664475 12.661309919902 9.4208547125322 7.5091997660544 14.666041054007 14.404711680466 7.6823635774133 41.184806601372 34.794351684829 6.8918738843431 8.6249080375733 21.165865375517 20.616922988589 8.2267117804522 11.13058128041 11.863703953344 11.620531204325 19.257236959871 11.698846279381 23.009139115409 6.1620661821782 6.669748625057 27.948887650564 4.2927893587704 3.8372343292245 11.072459576231 4.0634575055015 7.7305202540348 7.8347184004155 5.200119572317 12.027798767416 10.147270984765 4.7314325512474 8.1054803625849 9.2996369716368 7.5721874578621 7.4061658176076 9.7040466032411 8.5908404367219 7.4078286110778 10.966179204501 8.1040619725579 5.2528649784239 6.6652551810963 15.747763949512 6.9354581212007 7.28973720467 7.532732305014 9.9920543404264 13.633279053163 7.4344564078509 37.130378882749 6.7099693680352 4.7798584193495 25.665479891664 6.5789182448058 17.578668181876 25.987348517206 5.6012982722866 6.160559328742 7.2355687809816 10.804303871781 21.156417544161 75.56200013088 40.221544796754 7.8209624172357 5.0199898813034 11.98878669339 6.94350037836 6.8423588906782 9.2933482093808 6.6350000392356 5.169481111524 35.79299101626 15.988467108688 13.626738615435 3.9110024726584 8.5746023150858 8.2707840798783 10.008123104055 9.2478289948869 5.0143371065465 11.965925122256 15.268317335052 5.2799608969097 4.649034701987 8.3449365614244 18.074902365507 14.9538431637 20.783663996915 5.1850388280302 4.0708892024545 4.0657138267853 9.3972715364742 18.215602671274 13.160506245645 8.141074943934 9.5910354462388 12.639820855992 10.003202988235 8.3927349917994 13.147773201009 5.2368843307836 6.7787605490216 9.5087645563662 16.87495817105 10.115881997465 8.9576579276943 5.7231478084341 7.8563478434261 4.7098942478476 9.4933703318557 4.3355132944583 12.510671460229 7.3382785262856 3.7319294089753 15.822700619572 10.556306410052 8.9834888164642 13.727217354892 8.6430411373725 2.7219818163867 5.973645636185 11.07325094776 6.3296331115872 7.5142119128398 15.424413635665 7.2071379355279 17.828157327678 8.1797497207372 10.001986518126 11.965883820958 6.1178621561592 4.0422953967455 3.3055453260254 3.6030920637907 9.6119015835815 4.360788109059 10.695501081175 8.8863512673439 7.9541522974029 19.86938014602 9.3758858820429 19.105689887414 10.103068146518 10.666373230221 16.849136476286 8.5136471088912 7.6416029045378 12.730810813915 3.8896027233821 8.167219447732 8.5545911053634 22.43200531914 8.4771060392256 9.0582624562958 6.8030366764409 9.1735233699362 9.125749257397 5.0210929006845 5.1700115115154 9.9459618369349 11.825979339216 10.545293027602 13.603705443201 3.0252207672989 10.968362620557 10.324325766353 5.8927006698153 5.6883069097627 5.8245210350483 5.7995705568821 10.065944667998 12.982405130091 4.4618404660218 7.2872459763279 10.770822341858 5.8217773752919 6.0880653707501 11.166621384661 19.893399651252 10.283272964931 9.7044092116776 6.1345787280323 14.112810894131 6.8991762544652 6.3092092530248 3.1815568458347 4.8836388281034 8.4738920723428 9.9250300245494 10.565560441997 14.730939388132 23.111017958491 15.947013654144 3.8460669844571 6.6642104249628 8.9053377223573 5.8185463016089 6.4266212109467 8.4969693807847 25.111078370345 12.236108236806 5.2540562868308 14.494748871044 8.9220354027104 15.67459988264 11.326480294258 10.158607358097 7.7699314375386 8.0983166435752 6.046027151777 7.8293635062252 7.8799151416076 18.060895657654 6.7035828289503 12.443258004238 32.339181137831 8.9558167463671 4.4977769617872 10.095807812835 10.662803528407 9.8736746298952 3.4602854125628 6.4538556312756 8.8395418976684 9.1492108461497 6.9466750634246 11.082411005326 9.4490402268425 9.0889197561964 4.3344191993426 5.4651416166919 10.515991103659 6.1849812257965 25.654717908019 6.9408817951106 6.5565121492535 9.6102541093315 9.6088446447647 9.0575944574741 4.6700837077821 5.0487162808128 7.5853078111638 7.0930211006024 18.458471839678 6.0457966076289 4.3890969727136 3.8198635338594 8.6649360588155 5.5319838968817 9.1538983742636 10.38474706396 6.5516123990626 9.8315272008608 9.7954180637669 26.033543471609 7.9252023502387 16.744255253795 4.9783514404057 3.5648679685557 11.545078467582 20.037873812567 14.351966596225 11.705801097054 9.5063076541606 16.447761056639 18.063180665056 3.2474231767248 8.6287902629972 6.114669660374 10.583346362371 5.5995565257219 3.3908417471952 4.5455596376756 5.5439591534298 7.2058695782798 4.6304595387159 13.366492916234 6.4939297656412 3.5856307869831 7.6921698655055 7.70271314164 8.9019934517656 5.9596740181682 4.9589286373841 3.9523787608532 6.2565581181763 11.640302294255 8.6818856630671 5.6267817898244 4.4016618600807 3.9873103536352 5.7817191456079 8.7499332118663 5.376750656395 19.822904003712 10.254543834136 3.7945915175123 4.0218247220809 4.3078123680647 7.5729534010631 5.7652114576486 8.9830390308424 33.182202450942 8.2727199092228 10.471719724426 5.5607552823238 16.557958113598 7.6387031366006 6.7618146663108 3.1921410135671 11.053105491867 6.9917993009785 5.3501508902767 3.7955984084095 8.4783738112899 5.3063058973038 8.4974318671879 13.442253539102 12.665300969969 9.185507685141 4.9359063425514 3.943698158273 21.374369735009 3.8766722747206 10.946719115603 9.5896678861084 6.0568699618114 12.295333385259 6.995853102154 8.4379260190315 5.2072914610677 8.6698627499204 5.4170991533678 4.2842888553387 6.0936168031973 3.8931612071267 5.0182802069886 4.8908188419293 18.628189986445 8.2006991892 4.9445495921654 6.00037960182 5.7049834563722 4.5694872423887 6.1252523834485 7.5260322539936 5.3344683658967 6.9223350924249 13.658788983246 9.7468973723033 8.4496081033053 10.225425774052 11.699805310498 3.7735655996336 6.4223605662912 3.9646396858208 5.2304827010073 3.5974298650148 6.334141151966 13.92769967617 10.459622465789 3.6070381757476 10.448984958079 3.6924523201868 6.3866874149992 5.4616434664772 5.84452426692 10.88219437903 13.369017819501 12.69350618397 5.5588564045752 4.4851563369164 3.7524233820719 6.3562596550228 10.285957047736 8.495869528308 10.375429079953 7.0821784408336 14.798934268873 7.7789024136298 11.236754874 5.7571976784662 3.468682287624 4.9568071336546 4.7525143012514 3.6149886997659 3.9475625655394 3.5739919305449 8.5165062064425 5.3808889255563 3.4795086813762 3.6083373060682 12.173588570212 6.4044030729245 4.8131610757667 4.6640752680766 4.1227216546108 4.1890270184085 4.0420231208487 3.7212936169388 15.583134920409 7.76874029625 5.0756316952654 5.8034184357346 13.468214194474 6.9300910705596 6.1227627977143 3.6111317431362 8.7885028199414 7.7583858157654 11.723333961614 4.359472301611 4.1790751391354 3.8911262710932 3.6093764665229 4.9754822751203 5.0515795840175 4.600236324056 5.5196275874711 3.7694225291931 4.4625926551775 6.2937072795398 9.6563253862796 4.1408502940184 11.390245356099 9.1683320016943 3.7613036280927 8.2756310556659 12.320619867204 10.26783043764 3.8373964674892 6.6474849532976 4.7141762418373 4.1574172316001 4.5428689463231 3.7875103738144 9.8654462625901 9.295120378693 3.6568789774853 6.2044667035048 5.1034655993989 3.9635587394848 4.6233597584744 3.4752199811354 10.242518059837 7.4674608343528 8.2115292167573 4.296421253387 9.6237586629551 6.5210917604584 8.0161027311474 4.3150010915727 9.0912536828408 12.866888081425 10.056223547461 4.1359273462406 3.6491447726401 4.9013239495131 4.2356593251446 3.9510803782121 8.3703032516608 4.1029733998387 7.2316399961225 3.5371792191344 3.8964272230699 3.4734160435972 3.6871027519709 6.9321135613676 4.5235681953361 3.9033433362945 4.9403270917019 10.668336664161 7.4213761046912 4.0936776706641 8.1363740082428 4.5967822686611 4.9698365362858 3.944271574409 4.0281613473098 6.4931102690687 4.7158247372996 5.4147250604996 10.211759822453 4.5876225074909 4.1362844777171 4.2310882701005 4.1247310898213 18.330227264574 4.5864979523516 7.1315372069393 5.0160289300103 9.3508308376914 10.993349912406 3.8344215737963 3.4158634800133 6.1566401563679 5.1776474184297 4.6192353576753 4.8148586576068 14.344238389468 5.5741864845979 4.532612249351 6.6466037980093 11.109746045839 5.8730108805866 6.7338976392555 5.3281488308267 5.3791780909711 4.4692507631424 3.5051322199155 4.4523202673463 3.7661503794974 6.0011042547568 8.4902596239394 5.5329922323873 4.8718527744653 5.0538189485382 9.3063132585974 5.7281653548661 5.5100687324142 4.3643718349306 3.6167631872665 3.626603915041 4.1310535423325 4.7883499244876 6.5091281493999 5.8098294918271 5.2166039018259 4.3413171522901 3.9992344651699 10.878716161614 3.680017083901 13.638057687728 5.0647435612965 3.7752196427144 9.0535850339121 7.5543375139261 5.1051156583931 6.1095871990666 4.7091904889699 3.9220058937969 4.0975467819555 3.5408431451072 6.2257408885448 5.2613604098847 3.7382645198125 4.1057599277781 3.6449309870513 4.3142917797635 4.0320571265109 7.6213028906042 3.2096038472438 6.9495673961209 3.6664351157437 4.1519625689147 3.9749268239282 5.2727130212864 3.6747497917652 3.7999542693096 4.3902005650012 3.3742550754184 3.6385792451897 4.2025015990525 8.4863371441797 7.8637789960523 5.3922665973564 3.7422147587497 3.779690404239 3.7712545848499 7.4625629380196 5.4239615735604 6.920080156723 4.9094787005841 9.3520799513127 9.0837873579323 3.6502044898487 8.7704937104332 3.7141386174269 8.4822892547832 4.8199603894753 7.4209771629484 9.2947365931804 6.0065020807154 7.5772046464338 6.960009181483 7.5194529935745 8.3497965349487 8.658580476277 6.5159864495239 7.7308670489385 3.6602104474036 4.5392458487932 9.6195254178612 3.6581941667993 7.7456988957525 5.0200233511355 4.3755989632592 4.4880674895571 4.0161294426198 3.9092767203635 3.7622796637097 4.0305005587281 3.4230370928572 3.6866064519252 11.859246686662 4.6890492260351 9.8399820075829 9.7508531608 3.804104404246 3.9856255040257 3.9183135677915 3.8505818384733 4.3134900735837 4.0570533586087 4.3725563512459 4.0439798702099 4.7882001150006 3.9973034360442 4.4852679050949 4.1241858742465 4.7583780326363 5.1436959982722 4.2578202817915 4.3607367139606 7.2981575933708 7.0797854465203 4.1926090349232 3.8525839338586 3.8439640654066 3.7210834414119 3.5522937206855 4.6223323286367 3.9548386861887 4.433528770612 5.0964912780596 22.662719837073 18.394830936463 3.8199699534491 4.0661972029265 5.3650585638055 4.0159471750409 3.4487063110283 3.5548544681177 4.0243204217502 5.9253981310737 15.280931824953 4.3191563940115 6.3349919699941 3.523769338647 4.0522985698901 12.062190566789 4.2247906551961 4.6961477596799 6.8726631381313 3.8349259963473 3.7003616392268 6.8870528530133 7.9575229006463 4.1938731670147 3.6775976920968 3.9949971603391 4.6401108795505 4.6421128080154 4.0877023200782 3.7469505132482 3.7410115031027 4.0498756926191 7.2897421980561 3.4866811756235 3.8379282322299 3.7929529006309 3.9230559015773 3.5974845012361 3.6516975859783 7.9497078447336 3.6993644199676 5.1701565504436 3.3568678371481 3.5705960017201 3.7931849959122 3.4698797028393 3.6386367007622 3.7471934654579 3.9370399176734 4.1795327238293 4.5674026366031 3.9176590234724 5.1080738618436 3.7616927297431 3.6336221573735 3.9975891305946 4.185468817744 4.0984068081471 4.8331124946297 5.0212625180422 4.2489265332716 5.6839040668529 4.2556911128389 4.8543593201512 3.7755180558282 4.5398810768352 4.79478433735 4.7300370669033 5.1570385785443 4.1304762658514 3.8346355260733 4.5330440193487 4.8656259139752 3.657276968726 3.6204613152343 4.4158725403357 3.797591753397 3.7603128752506 3.6846282912068 3.6593002692515 3.6301054741225 3.7082691317827 3.825797783418 3.7651414746575 3.589826642338 10.344615864193 3.8004163960763 3.9420854147711 3.8935609164835 11.523324799914 7.0935610142056 3.571211060152 3.9564937677742 3.8553693743325 4.1764413507106 3.7248565707185 32.671288572298 3.6344122860684 3.6828203292657 3.6172031339172 3.3489568260081 5.5582358041177 3.8784816227306 5.0699355513094 4.1712221314959 3.4536871706972 4.0142232236285 3.6868009047678 3.7972361196986 3.2965995266529 3.7457603434873 3.4276879160663 3.8664497804984 5.5141966244927 3.6994335083021 3.7583668899924 3.6579032504425 3.6418686769514 3.6160763966171 3.7396128005331 3.7767368168226 3.9032622591462 4.2226648460444 4.1805479069143 4.8002313420098 3.7559320553844 3.7344601692194 3.8505695729992 3.5927119024069 3.6766994910006 3.6194016749246 3.5170539219641 3.4545792730393 3.7132722217402 3.7179470832565 3.815450025152 3.6551574566035 3.7444560169164 3.5593550120397 3.8752587810748 3.9967903621131 3.7663202795576 3.7432178820388 3.6623252697572 3.6729274288186 3.7914023617058 3.7204921510819 3.6955378730977 3.6239095964519 3.7410379484392 3.3661722286839 3.8446085275683 3.5307380094708 3.5968268023459 3.8234312469684 3.6226481708072 3.4828987583591 3.666078124306 3.7536085096014 3.732767497144 3.7760477875269 3.6648813948053 3.8689457203892 3.8588779534195 3.9701807161114 3.9198581190786 3.3906759535398 3.8736605169278 3.5839639862171 3.4063690316002 3.6468643573802 3.9988293478511 3.4643671308731 3.4388136064621 3.7466061360893 3.7592584104863 4.027022262679 4.3650958553949 4.2501632814586 3.9091092121184 3.9993391187408 4.0007696315913 3.7895038344453 3.73099590225 3.9945067572089 3.6221733226855 3.9505479368396 3.7495181396746 3.8316983641793 5.0005368621716 3.4947167999079 4.040072262623 3.8215054322095 5.4336895547182 3.9671489623777 3.8182297552436 4.1264601473955 3.6307100515702 3.6924026983087 3.8785730106738 3.6562896216725 3.7346122867577 4.012484950012 5.2902084094526 3.9612314736347 5.4434512634107 3.8908942032063 3.9484295244555 3.6481312114104 3.6073666176751 3.7262963041153 4.1516594498146 4.2780953637512 3.8965512166404 3.9496692432339 3.4047527992687 3.5910611733915 3.7797679647187 5.5861821139744 4.2155832517125 4.0599802011727 3.8531049483538 3.8700084858437 4.139749640146 3.6552042712261 3.961007807904 3.7162879761665 3.6416836681107 3.6890275591727 3.5409298565888 3.8132609790081 5.0483306139915 3.6736891734946 4.0308169695363 4.0322210476296 3.9240312446425 4.0558355826955 4.124471616729 4.4196523722862 4.6766287336001 4.3658858681604 4.056089833884 4.402238752001 5.1729924536558 4.819491168935 4.9527659304459 4.5362898594898 4.9279356244012 5.315976142619 4.7377690467346 4.499939930888 4.0964689025743 3.9323732094026 4.1346684148919 4.1719906611572 3.9303330446553 4.1391218496942 4.2541526530845 4.3720181879489 3.9501675086163 4.1258711110576 4.4269515254217 4.4408230130243 4.3045963426421 4.511805794206 4.2866450556232 4.4523196561871 4.476804756567 
SCALARS 40.00_0.63 double 1
LOOKUP_TABLE default