# vtk DataFile Version 3.0
d-2__ created by libgimli-v1.1.0
ASCII
DATASET UNSTRUCTURED_GRID
POINTS 570 double
14.5	0	0
14.25	0	0
14.386963504964	-0.201738469428	0
22.399299936458	-0.310870122736	0
22.129824335287	-0.229914148082	0
22.126320781198	-0.518791771445	0
8.472303742627	-0.591754876635	0
8.780507935475	-0.76092407121	0
8.82173151259	-0.349253271447	0
18.663262297679	-0.667179415955	0
18.934786529245	-0.453308328646	0
18.636898038907	-0.29588182328	0
4.016904362632	-0.85330676142	0
4.076038737616	-0.331410355179	0
3.713721571226	-0.470767763626	0
1.89953779852	-0.269343012166	0
1.633800503821	-0.203067612233	0
1.644492760828	-0.441295523531	0
4.368408037607	-0.250833874131	0
4.337474161742	-0.544420985055	0
4.67745607622	-0.378433532554	0
1.406172533733	-0.772361039307	0
1.913288206557	-1.218576310882	0
1.90687689783	-0.651895683444	0
2.5	0	0
2.25	0	0
2.347047126858	-0.185539804102	0
1.374000926997	-0.300418771701	0
1.25	0	0
1.114902662369	-0.201591505098	0
1.067401015567	-0.470108640981	0
5.75	0	0
5.699780065382	-0.324747799653	0
5.924584257371	-0.172748359932	0
0.883560935405	-0.231136840652	0
1	0	0
9	0	0
9.117836368049	-0.253904480787	0
2.625577516194	-0.346770599322	0
17.859079774019	-0.943547525024	0
17.535029634209	-1.703182852412	0
18.338018094476	-1.366069799339	0
19.932263871771	-0.826489183604	0
19.881635677668	-0.346204516721	0
19.622287080959	-0.573770479943	0
1.5	0	0
1.75	0	0
23.25	0	0
23	0	0
23.109690227386	-0.220340974338	0
2.75	0	0
2.142562771237	-0.172460438312	0
2	0	0
23.332392704446	-0.202507275941	0
23.5	0	0
19	0	0
18.75	0	0
18.888143078348	-0.195773419804	0
2.90152418742	-0.185685383897	0
7.612175045312	-0.180627982114	0
7.527150943175	-0.401430797998	0
7.881917737402	-0.30462800112	0
25.630635194756	-0.512020961038	0
25.243766894324	-0.80097755811	0
25.758031115142	-0.952821630144	0
3	0	0
28.84859809239	-0.201276387394	0
29	0	0
28.75	0	0
4	0	0
3.835807353334	-0.199536243303	0
3.106904732949	-0.178783649348	0
29.25	0	0
29.092446172194	-0.305987136665	0
13.5	0	0
13.667851890428	-0.185102765244	0
13.75	0	0
3.75	0	0
14.407363653886	-0.441423674912	0
14.125469935998	-0.279652141152	0
4.25	0	0
5.061980176718	-0.407989246181	0
5.335512032876	-0.269401530321	0
5.113979852892	-0.173834924157	0
11.882046000841	-0.812345557852	0
12.478640631525	-1.146569360669	0
12.244190771573	-0.565936619511	0
3.633270844505	-0.195395238442	0
14	0	0
18.378272976509	-0.514977451159	0
5.5	0	0
9.619519097921	-1.16461851757	0
10.030576753886	-1.587265312651	0
9.961661342999	-1.070235523667	0
5.25	0	0
5	0	0
13.157975569138	-0.830425793913	0
13.83833027638	-1.238601004239	0
13.671302359608	-0.710707966059	0
11.325917093147	-0.8366783502	0
11.612143285947	-0.506264798476	0
6	0	0
7	0	0
6.83842404292	-0.188923754932	0
7.11236984822	-0.391746146843	0
6.631875629497	-0.169178192832	0
6.75	0	0
3.21002197083	-0.595267231049	0
3.445510026908	-0.608065324465	0
3.362318141622	-0.306501255187	0
6.120159502895	-0.164221934939	0
4.538525595924	-0.906226152762	0
13.233775457127	-1.737244787017	0
4.5	0	0
16.138065841822	-0.472802517973	0
16.126746690205	-0.221608117926	0
15.859319180798	-0.326402762318	0
26.080401003391	-0.227842452866	0
26.25	0	0
26	0	0
3.019224421113	-0.401469974918	0
8.234901607028	-0.35771789179	0
8.518285578354	-0.242327591839	0
8.328777073389	-0.153008859619	0
7.25	0	0
7.400656881666	-0.195280611572	0
7.5	0	0
5.385509485898	-0.709154879541	0
5.948697127931	-0.745234910621	0
8.75	0	0
8.5	0	0
8.25	0	0
2.214249105773	-0.404278959534	0
2.896561357202	-0.792481120253	0
9.25	0	0
4.920911116561	-0.192028847294	0
9.651670336652	-0.200847798694	0
9.849824537955	-0.19917205686	0
9.75	0	0
10.095049354068	-0.315754204277	0
10	0	0
3.25	0	0
6.738406513564	-0.710129601907	0
7.121614580011	-0.943026074581	0
11.345829942703	-0.314788260019	0
11.25	0	0
11.104427225455	-0.188863495516	0
6.052412255932	-0.372556729023	0
6.373371846535	-0.274163514827	0
10.25	0	0
10.380281579003	-0.241092027437	0
10.5	0	0
10.75	0	0
10.909079077441	-0.189427130481	0
11	0	0
6.25	0	0
6.5	0	0
4.75	0	0
3.5	0	0
10.672815698565	-0.318467932684	0
10.772487906066	-0.787092734739	0
11.020900486567	-0.439266778492	0
8	0	0
7.75	0	0
11.5	0	0
11.619450354736	-0.231443672836	0
11.75	0	0
8.139317726831	-0.163309591658	0
12.25	0	0
12.158949464947	-0.235415698299	0
12.412455385193	-0.275030800337	0
12.929165084344	-0.221336108042	0
12.686337592177	-0.258437422252	0
12.900449535554	-0.462768612232	0
12.5	0	0
9.405755833308	-0.325979504745	0
9.111697192308	-0.594170467817	0
9.457257345083	-0.753685223931	0
18.101369157139	-0.618560521812	0
18.336839281097	-0.861122419318	0
10.385948631267	-0.570640149046	0
9.5	0	0
13.411260455969	-0.342646276848	0
12.643108055516	-0.590179775368	0
13.137744715761	-0.195204172124	0
13	0	0
21.25	0	0
21.358341816502	-0.326561417551	0
21.5	0	0
13.816492716597	-0.40394453634	0
20.25	0	0
20.423452336785	-0.313445603959	0
20.5	0	0
17.789350393153	-0.390447709085	0
17.987794057246	-0.401472255242	0
17.881276545163	-0.206424156589	0
19.564465692234	-0.270867872644	0
19.290725118801	-0.49926248604	0
16.392319441256	-0.29915360323	0
19.443730892406	-0.923508713428	0
20.457987075478	-0.803203365193	0
20.167450719332	-0.505159975143	0
0.103762538371	-0.253013629949	0
0.267057015134	-0.483604909932	0
0.374713194419	-0.2320817565	0
13.25	0	0
17.415572543912	-0.230682214253	0
17.5	0	0
17.25	0	0
18.108153655084	-0.208141099276	0
18.25	0	0
18	0	0
15.75	0	0
15.544586046819	-0.246453491997	0
15.122708481244	-0.193620038745	0
15.25	0	0
15	0	0
19.75	0	0
24.149237782749	-0.319013340846	0
23.842766599446	-0.577371105011	0
24.183995039967	-0.73159476451	0
13.871646321742	-0.17394291424	0
23.862588150518	-0.245417872715	0
16.84024277193	-0.203626765466	0
16.704049384397	-0.435508179396	0
17.112673188265	-0.38804641709	0
24.75	0	0
24.832880292394	-0.290571430318	0
25	0	0
16.40158555625	-0.755912194683	0
16.850299990829	-0.757941865332	0
17.75	0	0
23.567455674596	-0.325197491724	0
16.25	0	0
16	0	0
22.645812614293	-0.197864648876	0
22.75	0	0
22.5	0	0
16.75	0	0
17	0	0
24	0	0
26.914424714815	-0.337869958787	0
26.621963281699	-0.624626679172	0
26.977877660759	-0.778408201088	0
26.622424322919	-0.264588309935	0
19.34462271879	-0.199329831305	0
19.25	0	0
19.118057075065	-0.225686869553	0
19.5	0	0
26.75	0	0
27	0	0
27.5	0	0
27.604422363523	-0.298869962794	0
27.75	0	0
17.650384190064	-0.227839036584	0
18.343198956448	-0.236734208617	0
18.5	0	0
24.25	0	0
20.143897114391	-0.233773711865	0
25.5	0	0
25.25	0	0
25.344389320279	-0.31693710653	0
21.059546193318	-0.24845941382	0
20	0	0
25.842927934822	-0.248287716678	0
25.75	0	0
25.613904645132	-0.216025146631	0
21	0	0
11.763551406169	-1.481607093928	0
30.981104050195	-0.5526690913	0
30.873880294509	-0.217692518774	0
30.706626759758	-0.34945139905	0
20.75	0	0
20.85240828135	-0.178025243856	0
23.75	0	0
20.66289882074	-0.189089155251	0
30.204950808504	-0.791758966623	0
30.715535843381	-1.149995259266	0
30.543724897762	-0.572259098027	0
30	0	0
30.180216671806	-0.343473673313	0
30.25	0	0
23.229584388362	-0.458653998547	0
29.5	0	0
29.623391954444	-0.322069028408	0
29.75	0	0
21.618913855927	-0.233585823579	0
21.75	0	0
29.348490380579	-0.521100538161	0
29.36294710412	-0.230601226356	0
22	0	0
22.25	0	0
28.25	0	0
28	0	0
28.129259193923	-0.314252106503	0
28.44374413871	-0.484576386004	0
28.100199615755	-0.812038297775	0
28.649230646972	-0.871769248311	0
28.618403654115	-0.227691192115	0
28.5	0	0
28.387848605749	-0.205892081491	0
29.054768525933	-0.708603081552	0
29.344906532636	-0.846887322836	0
26.327430876245	-0.35930637997	0
10.349120516034	-1.04150119828	0
10.894920134778	-1.514321070539	0
24.59640839418	-0.191760546865	0
12.75	0	0
24.5	0	0
13.102881121377	-0.411296235356	0
25.099388239946	-0.214879887129	0
25.97986022697	-0.52841375324	0
24.398993403151	-0.196312410538	0
17.860840746535	-0.577367743328	0
17.566481510048	-0.529340016102	0
26.5	0	0
16.637148248735	-0.188015807345	0
18.183918302467	-0.396443618316	0
27.159348252167	-0.205297590358	0
27.357530053515	-0.198815038154	0
27.25	0	0
15.060354649709	-1.112587998155	0
15.51532665618	-1.043792149387	0
15.178150912169	-0.713100616689	0
10.051363365948	-0.719159376333	0
14.661248691948	-0.27865166374	0
14.75	0	0
27.868836823455	-0.217301839861	0
31	0	0
30.75	0	0
-0.020273477909	-1.415389842481	0
1.054972770973	-1.487485199502	0
0.512583677021	-1.0438154777	0
0.75	0	0
2.361419414365	-0.794513604096	0
29.890297721653	-0.2433406165	0
30.473599299501	-0.238575611274	0
30.5	0	0
30.660802173874	-0.161931182737	0
28.783812899585	-0.467926883932	0
4.937022539393	-0.72440615077	0
6.696914540879	-0.380672503721	0
7.434272221796	-0.695675918868	0
15.339606453815	-0.166204802571	0
15.281953315711	-0.388999642276	0
11.893544445085	-0.335972898148	0
12	0	0
9.753796445798	-0.478866225926	0
7.720012958977	-0.638314519759	0
21.871398197179	-0.313006985103	0
21.615176662754	-0.521922347305	0
21.856785525528	-0.665128848631	0
20.792152536902	-0.448319093295	0
21.109577821412	-0.527879642114	0
21.360297691811	-0.734200004244	0
15.547854961707	-0.580173571081	0
24.496861814148	-0.467031445896	0
25.067351422649	-0.463427753535	0
24.81263825963	-0.684738154192	0
22.865620821195	-0.218348593093	0
23.443705587002	-0.773171720633	0
27.277617447467	-0.489224417775	0
27.863714790534	-0.471681393437	0
26.239117668995	-0.863279739365	0
29.896797054636	-0.547765129844	0
29.612773839625	-0.699757135752	0
29.867172666547	-0.87444432816	0
29.610354212963	-1.521444655905	0
29.59548165142	-1.071765512911	0
29.115129171034	-1.220660174798	0
31.345359428525	-0.458952144926	0
31.144859415042	-0.241304201582	0
15.919565295974	-0.746550096707	0
16.063006820294	-1.289595303187	0
16.5	0	0
14.900855313538	-0.178071167744	0
14.161016743654	-0.72559708689	0
19.011498044983	-0.834202892304	0
16.760433281999	-1.263698818643	0
17.280361389946	-0.931704507314	0
-0.627742252535	-0.296285438777	0
-1	0	0
-1	-0.5	0
0.625738545692	-0.228405936136	0
0.5	0	0
3.313957665883	-0.865581185485	0
3.619156095452	-0.800599314657	0
[...]
CELL_DATA 986
SCALARS 20.00_0.60 double 1
LOOKUP_TABLE default
5.9568715564197 9.0186094140576 7.9723127073862 5.2784234694596 4.1808133257458 8.8422508157522 9.0792963423303 5.0917996220035 9.7443858857158 9.2269772910353 10.522243398075 7.2028532862514 16.596911432829 19.030632996285 11.954945110349 8.1635371748899 4.1531900017154 8.9337362602822 7.5183220323499 6.2192576268712 11.257125225541 11.013542259111 8.011000114534 9.7544900697363 50.887383976173 7.9643521520844 10.128082641484 4.6367148691502 6.0358357206239 11.141226925436 8.8309257061698 14.475328319213 8.0607866223196 14.997569201364 3.1844072907841 12.596893728008 22.853602747311 9.7015950029071 3.6477520594981 3.2801292725226 6.2272104228527 2.8818767307003 11.583552363788 3.6191673895928 16.736444686748 12.735141997477 5.3075692928859 5.4712721270386 6.1007046742746 9.1680675912637 9.7774126708578 3.828384022987 4.3540804161972 13.528126373546 5.7642105266667 6.5123506066567 3.5212662088224 30.697574207997 8.823826141439 4.3521164581222 6.642701053473 8.916647208561 13.016240239492 7.1200396153306 33.043899281325 28.996416897634 6.4625840082018 6.7735713628808 10.255865034852 12.826070905339 9.601683626221 17.739809673434 34.072352954816 15.735104442535 11.065485538314 7.0129627788195 26.220778193878 11.567385144346 15.490003855592 24.271475267336 29.254303356443 3.8465320313963 12.416546370855 9.5755563478238 7.1686420407772 16.49009229423 15.110872909697 8.0899098613394 46.61770091342 41.754897350813 6.9118565577109 9.0777781989058 27.260435268404 22.908891150102 7.9214487992133 10.89159308761 12.960559858858 11.598501258464 19.919734075127 10.372394979377 25.855267172869 6.5951285591367 6.8927513068003 31.242907833183 3.8504571742223 3.4906795677234 11.653960357036 4.1883970875283 7.7669756466379 8.7962796157568 4.989880028879 13.819100577951 10.700802718607 4.5929670047244 8.0149210875791 9.1849852968954 7.2918057086675 7.3144821922579 10.163059534744 9.0242520366045 7.4194855177619 11.154588475872 7.9298888143259 4.8739100306708 6.7154837048635 16.234054857126 6.6925675416123 5.3779477818766 7.3546933510829 10.120156446531 13.370838356671 7.1946139097083 42.580443681984 6.6801949784053 4.4091292138836 29.599877431088 6.2031195152335 19.086384431633 33.370084265372 5.2711375093289 6.7115696355509 6.9262028751912 12.002168799999 25.835605676695 96.598705853348 48.46902700406 7.5806184735886 4.6538372041593 13.350196838381 7.0036927576944 6.5900053572131 9.077707871732 7.41594830068 4.863643901389 48.455928246418 18.285923129515 15.520220948439 3.6146716440299 8.7323700774305 9.1908193946894 9.9649359447661 9.6929486331548 4.8412557062785 12.466342084674 16.463588304209 5.0403364971475 4.5357565699089 8.8257530363414 22.784953710223 18.951819449843 25.388474587419 5.2075452103051 3.7000761216954 3.6217802296047 9.8213327888102 25.218543316824 14.318573183025 8.2781710427804 9.9676227897289 14.304668168448 9.5866241178164 8.4253855118786 14.849188565195 5.1557442561416 6.6785369768188 9.3774039751719 19.141220427713 10.189273116368 9.184579685522 5.4960302492604 8.0633965420981 4.3633824788546 9.9878960939522 4.0579212537266 13.527916303174 7.3175935756505 3.3224314365203 18.054682177291 10.6580593598 9.3187532617956 15.761929266595 8.7844224364022 2.6169522096649 5.6484692931722 12.35051882649 6.0725715058463 7.5387482267788 18.28198200889 7.2014100722605 19.995211601988 8.717062064213 10.739527444848 14.613464511445 5.8867835923661 3.9526308744414 3.3087380027103 3.3061374952165 11.385884953281 4.1338673347916 12.024349832797 9.0481198991405 8.1860827574413 23.957624368867 10.110043764511 23.070703872565 10.442659596285 11.026577425803 19.499719555215 8.7814627411333 7.5131664440054 14.276744651975 3.885907017547 8.1556917098429 8.70651499872 25.470331690006 8.7011256556566 9.4227560559671 6.6198395949829 11.16635395399 9.3668159263401 5.0104380788182 5.1573043621338 10.38047788042 12.610687625646 12.379810699826 14.838944188188 2.917382958441 12.52012820781 10.368401952217 6.2968972506415 5.7552634536989 6.0528834737079 5.7161701563904 10.461862496329 13.696779620341 4.4992321130804 7.5078305996775 11.267865505979 5.5780966966915 5.8905463699922 12.076133450495 23.815442608876 10.303800635537 10.137359392725 5.8100001942632 13.645612395633 6.9769316477796 6.1801756888943 3.0700432382021 4.670885010284 8.1968079212429 9.8076896694385 10.948979226162 15.687411660604 25.845747659581 16.507868938525 3.6263345889108 6.6511858529547 8.8340472731561 5.8544637929227 6.0893747036304 8.7266299760587 30.649403961451 12.924558363353 5.1207849010274 15.782857308616 9.7411512394031 17.171886592993 8.1366243941764 9.2446009700011 7.8638559702385 8.0884619527388 5.7245854449634 7.791088180612 7.8112918218085 23.867454913127 6.4496037140178 13.849566406989 44.263316054951 9.6031091593776 4.0842419960842 11.29690836453 10.92877936363 9.8910319989557 3.1408337771853 6.2844245531351 9.2441562511359 10.756564873187 6.8280937994146 11.719745630184 10.076526263467 9.4863136425687 4.0622180592502 5.1245309034276 11.295929893087 6.0583015966678 29.877926746566 6.7004180586971 7.1670479662719 9.8222269001592 10.523540754996 9.6742250609547 4.3879168660169 5.137416349979 7.6140416437158 7.3132251742798 20.360475085647 5.8679975801046 3.9183959572311 3.6219433139568 8.8130848333485 5.141717637901 10.159309426621 12.363882640822 6.6431381304487 10.152458122182 10.310871604528 30.532210641256 8.0336391853797 18.17447687241 4.8235737040389 3.2450722229479 10.644727023062 22.597692020743 15.117248431123 12.080077918815 10.755455935595 21.212261408504 21.10957646949 2.880360888544 9.182638941344 6.0152846270254 11.045389934884 5.4934156954602 3.0706000086803 4.23159003676 5.389186018529 8.2440600889944 3.585047710651 8.4861654027502 7.1959168924145 3.3273042672578 7.6423609560108 7.5361807549549 9.0274595665491 5.6084706399187 4.6133596534294 3.6234894774467 6.0940866770693 13.082053736983 8.6246502179211 5.4683033149569 4.0734722565844 3.6313305150028 5.5510817734656 8.8061758392223 5.0787379515968 21.927466750931 10.060444238689 3.2951001876325 3.6944853578569 3.9939701811346 7.4067020087953 6.1412778942392 9.2307017474121 39.955735526335 8.7728772429551 10.623484156977 5.2037711125144 18.465012672717 7.3019617534235 7.2099695237175 2.7886994019763 12.245002902711 7.5745836010565 3.8296592091063 3.0274766490556 8.408838990778 5.3992768675854 8.6458559478307 14.58450908915 14.324547315189 9.7314687679754 4.6481867470732 3.6332046216382 27.468004895806 3.4452084368746 11.181509177146 9.5061170411529 5.9170557961774 13.841953880975 7.0308585503406 8.3204324130701 4.9084332762298 8.9683499410327 5.1990644857004 3.9303839418657 5.7060037392186 3.5188714072055 4.5787276919884 4.6552630515967 21.251843601061 8.1857059655751 4.880251904656 6.0707077544314 5.7386711197935 4.2089165130279 5.9617088372989 7.5381042887163 5.0745486913274 7.0481764215012 14.693046748097 9.9177268833912 9.7682659002225 10.726449106762 12.674110538032 3.3973935136456 6.7233286533635 3.8810737560343 5.0383352379775 3.3158239505733 6.4036006962778 15.161505645778 11.110090566016 3.2390466944234 10.635659915531 3.5541766936719 6.7042740725863 5.1822849831248 5.5292267753041 11.258665506397 13.940456839036 13.346683236147 5.320795489662 4.1887831867603 3.7018480849584 6.3890622699707 10.716882613262 8.5001571564846 12.453576375422 7.3785217699844 12.552864000508 8.4189455316834 9.196871490113 4.2242406580818 3.1846842168087 4.7761314805812 4.9190615765609 3.3062529447014 3.7125929490089 3.3212976406167 8.6840870827945 5.1392363024891 3.2105664123415 3.3740422361398 13.486040028551 6.3262970281107 4.5502464819715 4.2562802586324 3.8470410579203 3.813170848561 3.699748641034 3.3601599683322 16.642927534522 7.780555119466 5.0205131704353 5.7336140688387 15.21878406263 6.6765111255136 5.8318919056536 3.4251988432533 8.7365792130596 7.0512365878624 12.105413286469 4.031075592075 3.9284852218091 3.6628666511622 3.5565122765461 4.7047813005006 3.8500793253145 4.3723564535216 5.3714753452027 3.496822000071 4.0303189407798 6.2912087556195 10.147008275477 3.8937924542667 12.80008453341 9.6085861043994 3.6756241840285 8.3802559231359 13.983581236246 10.784770270401 3.5921167218829 6.4482867831369 4.3684675963506 3.8452133206877 4.1873531954546 3.5830829047844 10.190654697631 9.7849517075017 3.2995680132192 6.174601180903 4.9949904965646 3.6635186114758 4.3166658322655 3.1619916231765 10.443055242461 7.3587263540104 8.4239664515112 3.8926058374699 9.8853606917046 6.2208040381374 8.9333568799198 3.9831869416345 9.2507611556301 14.180389826364 10.692182147898 3.8910885004851 3.6217779660925 4.5517254603729 4.0697516177725 3.6999720667063 8.1375355362982 3.8300930767322 7.1464357433176 3.4507930571206 3.6082144463908 3.4519393589262 3.514228572208 6.6061183392187 4.3094456507733 2.2414558171416 4.7039507523834 7.0574469759941 5.7635700614233 3.7729762503305 5.6655764909318 4.3897349026325 4.7304630040276 3.8137150570803 3.812765629425 6.3481012976424 4.5283066760173 5.1870773305388 10.460059189722 4.4481579582192 4.1199058648821 3.8931276698684 3.7847313555137 20.234709580545 4.3319778031074 7.3361873551924 4.8360250848602 9.6812113293653 11.203596700931 3.5970921148174 3.2968710059695 5.8913503994687 4.9369102877123 4.2456164522525 4.4061830051217 16.989298287713 5.383248804928 4.4007349872255 6.9131987850489 11.721089949798 5.5840283764327 6.624474957927 5.1013858224272 5.2480564912547 4.2427363404151 3.3756920073915 3.244228165986 3.670936394867 5.5398511787968 6.9423600764688 3.7519950880423 4.6789210915568 3.9338833303438 7.3345358158316 4.6349093190651 5.5706361889465 4.1552861806525 3.3733204058862 3.4678346872981 3.8788964977388 4.4929763308955 6.4422795811239 5.6246804096082 5.0524222637705 4.0219416551637 3.7286577963432 11.488139134818 3.3569448627307 15.450680973565 4.7723457997777 3.6915394111588 9.1686014995929 7.2621120788294 4.9183008785582 6.0479625871178 4.4534006931221 3.6692361753072 3.8612565749209 3.2227036157947 6.2219318415307 3.7419496643902 3.6198489319614 3.8711176605531 3.4433078131075 4.0901175071937 3.8426711499747 7.5357643829109 2.8284305633956 6.6319799266536 3.5561917365543 3.9323464102615 3.7761897007642 5.0020945829558 3.5474985355142 3.7262822630321 4.1755141181779 3.0746736963612 3.5910260182369 3.9812337164022 8.2956431197884 8.0474803569695 5.0734671176066 3.6174995513702 3.4354643714727 3.6373347606716 7.5727217606359 5.0865263441212 6.8272371362143 4.6390778796536 9.6782463990962 9.2530756214598 3.2779391066607 8.9578883874033 3.2921521291926 8.5947678774314 4.6664285493607 7.4164474759864 9.5463062180093 5.9410779424252 7.6760905892444 6.9656784228508 7.6529162514508 8.5335123711519 8.9074767730494 6.5116595765006 7.886082957752 3.5478986351915 4.2956344269427 8.4244131020749 3.6780581726954 7.7614628760624 4.836518686203 4.024693886571 4.1930857459434 3.595391414182 3.6761766061676 3.6076419811222 3.8012008877287 3.2312184249842 3.4308319024842 12.363142977203 4.8419436255483 10.568186634012 9.7168017654876 3.6227062781524 4.0397338648502 3.7857401926162 3.5707650385225 3.9986719806935 3.7537917170655 3.9967307874876 3.8430794461566 4.6736940661003 3.5273371869039 4.1234265321739 3.7024621812889 4.5434696940933 4.9018434760566 3.9942221109108 4.2088300045567 7.3998657187631 7.1474684696559 4.0612420952007 3.9389615893465 3.8645043276518 3.6348134506047 3.4482372341797 4.2783261735252 3.5692972967417 4.0433741267932 4.7614074000436 28.750924097612 20.952641411497 3.8094689207279 3.9288062943005 5.0565753808111 3.8840036406783 3.325733555147 3.4736802871561 3.7612958686394 5.7116928045592 16.839944614933 3.9879906315449 6.1986452656093 3.204474255581 3.8239498744619 12.744343108371 4.1338328887625 3.7797098349241 7.0810413125686 3.6139793052314 3.6000391380883 4.9565322715632 8.2457148390365 3.950153505117 3.5531325519442 3.820694384539 4.3530996379584 4.9267488638016 3.8255305332839 3.7161290362781 3.7345371681807 4.0771805001176 6.9645717914403 3.2171879789094 3.5997576801022 3.639000294298 3.7380875057198 3.3387005988479 3.2869730697983 8.2091643582809 3.6911512651669 5.063162167951 3.2863812215169 3.5500182124751 3.6045076626713 3.2310413133834 3.582430924308 3.7854830092848 3.908321970479 4.1032069797636 4.427868596964 3.9460530829606 4.9247585659122 3.4824960324934 3.6050629814693 3.97721595007 4.0732762049366 3.9625329162578 4.3871875313185 5.3579796153402 2.873392147126 4.3782151858343 3.7591746235486 3.9068788245798 3.700846455996 4.0990458435788 3.603579980387 3.8191057696702 5.5135726839613 3.8431582950972 3.8776502290026 3.3655126014651 4.3334442138378 3.6480929756715 3.4330636330326 4.2116436595389 3.675182829864 3.5674374444736 3.6323510438762 3.5915471460245 3.6389566434606 3.6273811824033 3.7452718589752 3.7467270286646 3.3374333005018 10.393589119368 3.6516651867358 3.7618511012903 3.6700232794865 12.391225858126 7.1852296311948 3.5559327651321 4.0201662494201 3.9419243993805 4.164641955165 3.5088166911147 40.165948767429 3.5999128435898 3.5030659692862 3.4439711275182 3.2254687223228 6.5924523232887 3.8842234427213 5.7434063934583 4.5149314528929 3.3513509230492 3.876545946776 3.6235638308262 3.87949954874 3.0383259415294 3.729508819275 3.3519088024058 3.7848778899435 6.5003320617078 3.7430385545803 3.7125683524539 3.643717063041 3.5755517048992 3.5852631829874 3.7105853180606 3.7988682659939 3.849575100514 4.1920140134112 4.0377687707907 4.7624383612075 3.7498466222594 3.783644668876 3.9148241646005 3.5116402009019 3.6854510217407 3.6350771214566 3.4512732554532 3.4067982012222 3.6991242160257 3.7618655552734 3.9104091271677 3.5546919026527 3.8016598407184 3.4481665808813 3.7783100786357 4.0225845246705 3.7684843762944 3.7472712851066 3.6286263878817 3.6533802367606 3.8507629383697 3.7556106852271 3.6905888781195 3.5927968141085 3.7983476308087 3.3208157138864 3.868742760708 3.4959856506921 3.5514518125692 3.8528445168897 3.5511825741151 3.4241770284981 3.6591156751473 3.7882870774849 3.7521041714195 3.7908061362185 3.6608923664329 3.9285134189435 3.958675235565 4.1480657198077 4.1879632976091 3.3239658495041 3.8482468228033 3.5780018913837 3.3224246314753 3.6560923494119 4.0210034464632 3.289118198829 3.3316748344471 3.8073323377474 3.647110450058 4.0054456158928 4.4205571121598 4.6391833068306 4.0245614189927 4.089534106754 4.0879166550958 3.8313596523279 3.7567115982313 4.0331778639977 3.4341147130487 3.9821922083841 3.7645871168288 3.9051653750372 5.7017856138701 3.423900190844 4.1027421035047 3.7593341060354 6.1747017234285 3.9578924973165 3.859470033244 4.0800565690859 3.6264708318215 3.4671123079124 3.9562688669147 3.6059283092846 3.7183102448605 4.0278071697396 5.6669043045803 3.9931401322623 6.035347681651 3.7212756361016 3.9068860761325 3.6111580540806 3.5293646485732 3.6895408640751 4.2103613488535 4.3335278938416 3.9294088835577 3.9860067453595 3.2261781199534 3.512458511102 3.683102780132 6.5205581409559 4.1180179186053 3.8978068102283 3.9136575468097 3.8899923586324 4.1420230499178 3.5831115295752 3.9181947495804 3.653455927792 3.4441802774409 3.6410202818318 3.3265417888892 3.6477463549529 5.6278287256954 3.6172396050534 4.0781689342749 4.0749727934089 3.9030741770174 3.9748936918757 4.2324387448692 4.4243840753809 4.831067879859 4.23873761696 3.8650323292263 4.3331651575114 5.3670014292552 4.8974689598575 5.1556580240299 4.510799319375 5.0022177855509 5.6239093472375 4.70097530483 4.3789701503966 4.1390547920733 3.978762886461 4.1477690702706 4.1972690546733 3.9112687784588 4.1245222759916 4.2563435472066 4.2088439876393 3.7287530557284 3.9274168577312 4.2997275194585 4.4416694043158 4.3468655516084 4.5561418627801 4.3428887110411 4.5135873354551 4.5376028985759 
SCALARS 40.00_0.91 double 1
LOOKUP_TABLE default