# vtk DataFile Version 3.0
d-2__ created by libgimli-v1.1.0
ASCII
DATASET UNSTRUCTURED_GRID
POINTS 570 double
14.5	0	0
14.25	0	0
14.386963504964	-0.201738469428	0
22.399299936458	-0.310870122736	0
22.129824335287	-0.229914148082	0
22.126320781198	-0.518791771445	0
8.472303742627	-0.591754876635	0
8.780507935475	-0.76092407121	0
8.82173151259	-0.349253271447	0
18.663262297679	-0.667179415955	0
18.934786529245	-0.453308328646	0
18.636898038907	-0.29588182328	0
4.016904362632	-0.85330676142	0
4.076038737616	-0.331410355179	0
3.713721571226	-0.470767763626	0
1.89953779852	-0.269343012166	0
1.633800503821	-0.203067612233	0
1.644492760828	-0.441295523531	0
4.368408037607	-0.250833874131	0
4.337474161742	-0.544420985055	0
4.67745607622	-0.378433532554	0
1.406172533733	-0.772361039307	0
1.913288206557	-1.218576310882	0
1.90687689783	-0.651895683444	0
2.5	0	0
2.25	0	0
2.347047126858	-0.185539804102	0
1.374000926997	-0.300418771701	0
1.25	0	0
1.114902662369	-0.201591505098	0
1.067401015567	-0.470108640981	0
5.75	0	0
5.699780065382	-0.324747799653	0
5.924584257371	-0.172748359932	0
0.883560935405	-0.231136840652	0
1	0	0
9	0	0
9.117836368049	-0.253904480787	0
2.625577516194	-0.346770599322	0
17.859079774019	-0.943547525024	0
17.535029634209	-1.703182852412	0
18.338018094476	-1.366069799339	0
19.932263871771	-0.826489183604	0
19.881635677668	-0.346204516721	0
19.622287080959	-0.573770479943	0
1.5	0	0
1.75	0	0
23.25	0	0
23	0	0
23.109690227386	-0.220340974338	0
2.75	0	0
2.142562771237	-0.172460438312	0
2	0	0
23.332392704446	-0.202507275941	0
23.5	0	0
19	0	0
18.75	0	0
18.888143078348	-0.195773419804	0
2.90152418742	-0.185685383897	0
7.612175045312	-0.180627982114	0
7.527150943175	-0.401430797998	0
7.881917737402	-0.30462800112	0
25.630635194756	-0.512020961038	0
25.243766894324	-0.80097755811	0
25.758031115142	-0.952821630144	0
3	0	0
28.84859809239	-0.201276387394	0
29	0	0
28.75	0	0
4	0	0
3.835807353334	-0.199536243303	0
3.106904732949	-0.178783649348	0
29.25	0	0
29.092446172194	-0.305987136665	0
13.5	0	0
13.667851890428	-0.185102765244	0
13.75	0	0
3.75	0	0
14.407363653886	-0.441423674912	0
14.125469935998	-0.279652141152	0
4.25	0	0
5.061980176718	-0.407989246181	0
5.335512032876	-0.269401530321	0
5.113979852892	-0.173834924157	0
11.882046000841	-0.812345557852	0
12.478640631525	-1.146569360669	0
12.244190771573	-0.565936619511	0
3.633270844505	-0.195395238442	0
14	0	0
18.378272976509	-0.514977451159	0
5.5	0	0
9.619519097921	-1.16461851757	0
10.030576753886	-1.587265312651	0
9.961661342999	-1.070235523667	0
5.25	0	0
5	0	0
13.157975569138	-0.830425793913	0
13.83833027638	-1.238601004239	0
13.671302359608	-0.710707966059	0
11.325917093147	-0.8366783502	0
11.612143285947	-0.506264798476	0
6	0	0
7	0	0
6.83842404292	-0.188923754932	0
7.11236984822	-0.391746146843	0
6.631875629497	-0.169178192832	0
6.75	0	0
3.21002197083	-0.595267231049	0
3.445510026908	-0.608065324465	0
3.362318141622	-0.306501255187	0
6.120159502895	-0.164221934939	0
4.538525595924	-0.906226152762	0
13.233775457127	-1.737244787017	0
4.5	0	0
16.138065841822	-0.472802517973	0
16.126746690205	-0.221608117926	0
15.859319180798	-0.326402762318	0
26.080401003391	-0.227842452866	0
26.25	0	0
26	0	0
3.019224421113	-0.401469974918	0
8.234901607028	-0.35771789179	0
8.518285578354	-0.242327591839	0
8.328777073389	-0.153008859619	0
7.25	0	0
7.400656881666	-0.195280611572	0
7.5	0	0
5.385509485898	-0.709154879541	0
5.948697127931	-0.745234910621	0
8.75	0	0
8.5	0	0
8.25	0	0
2.214249105773	-0.404278959534	0
2.896561357202	-0.792481120253	0
9.25	0	0
4.920911116561	-0.192028847294	0
9.651670336652	-0.200847798694	0
9.849824537955	-0.19917205686	0
9.75	0	0
10.095049354068	-0.315754204277	0
10	0	0
3.25	0	0
6.738406513564	-0.710129601907	0
7.121614580011	-0.943026074581	0
11.345829942703	-0.314788260019	0
11.25	0	0
11.104427225455	-0.188863495516	0
6.052412255932	-0.372556729023	0
6.373371846535	-0.274163514827	0
10.25	0	0
10.380281579003	-0.241092027437	0
10.5	0	0
10.75	0	0
10.909079077441	-0.189427130481	0
11	0	0
6.25	0	0
6.5	0	0
4.75	0	0
3.5	0	0
10.672815698565	-0.318467932684	0
10.772487906066	-0.787092734739	0
11.020900486567	-0.439266778492	0
8	0	0
7.75	0	0
11.5	0	0
11.619450354736	-0.231443672836	0
11.75	0	0
8.139317726831	-0.163309591658	0
12.25	0	0
12.158949464947	-0.235415698299	0
12.412455385193	-0.275030800337	0
12.929165084344	-0.221336108042	0
12.686337592177	-0.258437422252	0
12.900449535554	-0.462768612232	0
12.5	0	0
9.405755833308	-0.325979504745	0
9.111697192308	-0.594170467817	0
9.457257345083	-0.753685223931	0
18.101369157139	-0.618560521812	0
18.336839281097	-0.861122419318	0
10.385948631267	-0.570640149046	0
9.5	0	0
13.411260455969	-0.342646276848	0
12.643108055516	-0.590179775368	0
13.137744715761	-0.195204172124	0
13	0	0
21.25	0	0
21.358341816502	-0.326561417551	0
21.5	0	0
13.816492716597	-0.40394453634	0
20.25	0	0
20.423452336785	-0.313445603959	0
20.5	0	0
17.789350393153	-0.390447709085	0
17.987794057246	-0.401472255242	0
17.881276545163	-0.206424156589	0
19.564465692234	-0.270867872644	0
19.290725118801	-0.49926248604	0
16.392319441256	-0.29915360323	0
19.443730892406	-0.923508713428	0
20.457987075478	-0.803203365193	0
20.167450719332	-0.505159975143	0
0.103762538371	-0.253013629949	0
0.267057015134	-0.483604909932	0
0.374713194419	-0.2320817565	0
13.25	0	0
17.415572543912	-0.230682214253	0
17.5	0	0
17.25	0	0
18.108153655084	-0.208141099276	0
18.25	0	0
18	0	0
15.75	0	0
15.544586046819	-0.246453491997	0
15.122708481244	-0.193620038745	0
15.25	0	0
15	0	0
19.75	0	0
24.149237782749	-0.319013340846	0
23.842766599446	-0.577371105011	0
24.183995039967	-0.73159476451	0
13.871646321742	-0.17394291424	0
23.862588150518	-0.245417872715	0
16.84024277193	-0.203626765466	0
16.704049384397	-0.435508179396	0
17.112673188265	-0.38804641709	0
24.75	0	0
24.832880292394	-0.290571430318	0
25	0	0
16.40158555625	-0.755912194683	0
16.850299990829	-0.757941865332	0
17.75	0	0
23.567455674596	-0.325197491724	0
16.25	0	0
16	0	0
22.645812614293	-0.197864648876	0
22.75	0	0
22.5	0	0
16.75	0	0
17	0	0
24	0	0
26.914424714815	-0.337869958787	0
26.621963281699	-0.624626679172	0
26.977877660759	-0.778408201088	0
26.622424322919	-0.264588309935	0
19.34462271879	-0.199329831305	0
19.25	0	0
19.118057075065	-0.225686869553	0
19.5	0	0
26.75	0	0
27	0	0
27.5	0	0
27.604422363523	-0.298869962794	0
27.75	0	0
17.650384190064	-0.227839036584	0
18.343198956448	-0.236734208617	0
18.5	0	0
24.25	0	0
20.143897114391	-0.233773711865	0
25.5	0	0
25.25	0	0
25.344389320279	-0.31693710653	0
21.059546193318	-0.24845941382	0
20	0	0
25.842927934822	-0.248287716678	0
25.75	0	0
25.613904645132	-0.216025146631	0
21	0	0
11.763551406169	-1.481607093928	0
30.981104050195	-0.5526690913	0
30.873880294509	-0.217692518774	0
30.706626759758	-0.34945139905	0
20.75	0	0
20.85240828135	-0.178025243856	0
23.75	0	0
20.66289882074	-0.189089155251	0
30.204950808504	-0.791758966623	0
30.715535843381	-1.149995259266	0
30.543724897762	-0.572259098027	0
30	0	0
30.180216671806	-0.343473673313	0
30.25	0	0
23.229584388362	-0.458653998547	0
29.5	0	0
29.623391954444	-0.322069028408	0
29.75	0	0
21.618913855927	-0.233585823579	0
21.75	0	0
29.348490380579	-0.521100538161	0
29.36294710412	-0.230601226356	0
22	0	0
22.25	0	0
28.25	0	0
28	0	0
28.129259193923	-0.314252106503	0
28.44374413871	-0.484576386004	0
28.100199615755	-0.812038297775	0
28.649230646972	-0.871769248311	0
28.618403654115	-0.227691192115	0
28.5	0	0
28.387848605749	-0.205892081491	0
29.054768525933	-0.708603081552	0
29.344906532636	-0.846887322836	0
26.327430876245	-0.35930637997	0
10.349120516034	-1.04150119828	0
10.894920134778	-1.514321070539	0
24.59640839418	-0.191760546865	0
12.75	0	0
24.5	0	0
13.102881121377	-0.411296235356	0
25.099388239946	-0.214879887129	0
25.97986022697	-0.52841375324	0
24.398993403151	-0.196312410538	0
17.860840746535	-0.577367743328	0
17.566481510048	-0.529340016102	0
26.5	0	0
16.637148248735	-0.188015807345	0
18.183918302467	-0.396443618316	0
27.159348252167	-0.205297590358	0
27.357530053515	-0.198815038154	0
27.25	0	0
15.060354649709	-1.112587998155	0
15.51532665618	-1.043792149387	0
15.178150912169	-0.713100616689	0
10.051363365948	-0.719159376333	0
14.661248691948	-0.27865166374	0
14.75	0	0
27.868836823455	-0.217301839861	0
31	0	0
30.75	0	0
-0.020273477909	-1.415389842481	0
1.054972770973	-1.487485199502	0
0.512583677021	-1.0438154777	0
0.75	0	0
2.361419414365	-0.794513604096	0
29.890297721653	-0.2433406165	0
30.473599299501	-0.238575611274	0
30.5	0	0
30.660802173874	-0.161931182737	0
28.783812899585	-0.467926883932	0
4.937022539393	-0.72440615077	0
6.696914540879	-0.380672503721	0
7.434272221796	-0.695675918868	0
15.339606453815	-0.166204802571	0
15.281953315711	-0.388999642276	0
11.893544445085	-0.335972898148	0
12	0	0
9.753796445798	-0.478866225926	0
7.720012958977	-0.638314519759	0
21.871398197179	-0.313006985103	0
21.615176662754	-0.521922347305	0
21.856785525528	-0.665128848631	0
20.792152536902	-0.448319093295	0
21.109577821412	-0.527879642114	0
21.360297691811	-0.734200004244	0
15.547854961707	-0.580173571081	0
24.496861814148	-0.467031445896	0
25.067351422649	-0.463427753535	0
24.81263825963	-0.684738154192	0
22.865620821195	-0.218348593093	0
23.443705587002	-0.773171720633	0
27.277617447467	-0.489224417775	0
27.863714790534	-0.471681393437	0
26.239117668995	-0.863279739365	0
29.896797054636	-0.547765129844	0
29.612773839625	-0.699757135752	0
29.867172666547	-0.87444432816	0
29.610354212963	-1.521444655905	0
29.59548165142	-1.071765512911	0
29.115129171034	-1.220660174798	0
31.345359428525	-0.458952144926	0
31.144859415042	-0.241304201582	0
15.919565295974	-0.746550096707	0
16.063006820294	-1.289595303187	0
16.5	0	0
14.900855313538	-0.178071167744	0
14.161016743654	-0.72559708689	0
19.011498044983	-0.834202892304	0
16.760433281999	-1.263698818643	0
17.280361389946	-0.931704507314	0
-0.627742252535	-0.296285438777	0
-1	0	0
-1	-0.5	0
0.625738545692	-0.228405936136	0
0.5	0	0
3.313957665883	-0.865581185485	0
3.619156095452	-0.800599314657	0
[...]
CELL_DATA 986
SCALARS 100.00_0.15 double 1
LOOKUP_TABLE default
11.868681657427 9.8525355504798 8.9761781493423 8.7853729790491 7.8922570239836 10.270435823119 9.0839163634121 6.7223186571933 11.347180882626 10.053590502705 9.470433884269 10.903292686906 9.9353752784345 10.85738082653 11.068784623844 10.329134795535 5.4343308022286 8.7071841650051 11.757300233269 11.970705983529 10.881678896687 11.083282839545 11.888741184988 10.798962652341 10.412186413755 10.623901643385 10.697342357484 7.0146941335595 10.819993270389 10.434380926483 9.5842067131094 10.183139173484 10.739735565918 11.634888994439 9.2521462096067 11.049455183189 10.239806583816 9.9999322426414 7.3998312956794 9.2757116833471 12.622073917861 8.6445074697452 10.752537289654 5.8421864744944 10.521270461315 10.263312263493 7.3937592417706 8.336170624717 10.995585351999 10.147136357414 10.105235714485 9.2950794756628 7.7920694225762 10.586301664851 7.840216552201 11.116585158186 5.768095734319 10.681172920849 10.515365430836 9.4335492025592 10.547152956953 9.6825187234154 10.858309740261 12.046714424159 11.186942393453 11.031113883821 8.4377996799447 8.2874135140835 11.209755075677 9.1967989598732 11.504620520519 10.988011929121 10.485519739551 11.353260173853 10.594611143448 8.3477582381243 10.374197869713 10.525135318129 11.070051662807 11.12556529526 9.4803678639296 7.7319902050033 11.41523619873 9.8396505112905 12.32144622729 12.765018151663 10.153980236225 11.842136878592 11.09476205516 10.921756693871 10.305628640148 11.268743552126 9.1564548455527 10.240252528968 9.76353116984 11.668527295167 11.555256346585 11.597922407841 10.863766746697 11.56866136133 10.245050320248 12.276952323386 10.287526957396 10.316085896636 8.714560300319 7.9307723454867 10.507480694135 9.7883814653009 9.1591275867696 10.010563254527 9.5856877226628 11.191121659762 9.8910294420431 10.014156652444 9.9948947705499 12.908882835042 9.9192518275453 11.926542151312 9.5043114721995 10.642237442005 8.0767876913677 11.985238783012 9.1938765950437 9.0457838473061 9.6352751663721 11.384393978205 9.1240461779198 8.9475979266176 11.79100500245 10.55365397609 9.931010622725 11.14710993186 10.786125300624 11.02751662172 8.2544458254951 10.888037472733 9.348327252215 10.943430608887 10.426514428575 8.6823837515829 10.714555439459 9.2626279245674 11.776643744837 10.205779002633 13.021968100576 11.881110218313 10.214200745528 7.5754043257562 9.7556967071483 8.5184219341552 11.232989734371 11.594045298668 9.6398045770024 11.248559752666 10.39616740326 10.858853704477 10.757933317801 10.005984784623 9.3085487407859 9.2643437471235 12.200316490423 10.647218598053 10.16851391241 12.538798282553 10.734177696059 10.505231941766 6.5770523103881 8.6010456432337 12.045581649191 10.060221970322 11.913714526072 11.37540134534 7.4618085269536 9.0150585899736 10.497042415264 10.167146437339 11.93956362277 11.057483037952 9.2332493640078 9.9952170811608 11.476468585346 10.514696607147 10.895756075312 7.3796810995587 7.4859206795975 11.78395268371 10.655705180578 11.185745889278 9.3291370012939 7.5559794265217 8.558244160055 6.5383427078501 10.104457878709 7.344699801511 10.347235137697 10.66217339823 7.2729965026213 11.361852272997 10.652517671513 9.9625250843177 10.572500142705 9.5408800770966 10.747503789613 10.103903925111 10.844064345658 8.2690755036296 10.174124449951 10.108567242259 10.470946948613 10.629267018437 10.220716914772 11.010008568172 9.2889948768573 9.5772178011476 9.6591035387687 9.6890092211321 7.1652824438521 9.9553610722201 6.8687711573125 9.6274349302234 10.258638905786 10.783886469824 10.708922004349 12.590041368374 10.031386588926 11.072084352049 10.442293606134 10.133640279496 9.1573171517413 11.531209632632 8.5951330507999 6.0980053831927 10.323052363954 10.230047736511 9.5488173724918 10.708628285407 10.009152645419 7.5318038590189 10.630751298906 9.1457754074194 9.1915502400291 8.8792573871559 11.253644609628 10.294100194215 9.1812797981379 10.257246333854 9.4729684615862 8.9081627798006 9.1179915023698 9.3430824568103 8.8805646563125 9.8526528387033 7.8098144851213 9.9191964812335 10.382819848585 9.04811184233 11.311937014621 10.114363543541 11.262147261578 8.1002021315878 9.7859363172583 9.2936957628209 10.786798609428 10.178959128133 9.4483017651521 11.274971687609 9.109787650419 11.577901437227 9.1990140080901 9.389410516331 9.6196793624705 10.235956086212 10.264366727156 10.09699194481 10.825760734465 10.827048304698 10.492238889316 10.387904137952 10.649716092124 11.120517295536 8.7093996426207 11.151963654342 11.977053966809 11.582130128142 7.7884111596016 12.067242693168 10.4560084746 11.732868673094 11.562687242267 10.539592206812 9.5665588863167 8.8651868900481 8.7953688796596 11.596825850433 10.082444454023 11.2949153474 10.051910379903 11.26375490208 11.612039783045 10.982685185976 8.7750404364631 11.532024239111 11.733684735473 10.464786564715 9.2017480398885 8.6798926673652 10.424257485886 11.357397439536 9.6916999009826 10.378350411528 9.761001768079 10.528419373354 9.3168807265373 9.7994669632098 9.9605010292021 8.7698039462727 10.382661169256 8.4920973765819 9.2965943427639 10.437075148854 9.2880225405505 10.140831181593 9.7635994377627 9.4274772693771 9.1339644980572 9.333422014625 11.286337986192 7.6989588856171 7.6086392626813 5.7458647194607 7.8538329649579 8.3794585639125 8.923879017964 10.135606793639 9.272684478635 9.7128892333723 8.3742605640213 10.673797306279 8.5988508131552 11.23681501557 6.8060850275085 8.0404016585558 12.047064380822 11.534722038826 11.100088255034 10.180949313886 10.687791888673 10.915957300771 10.255856312794 9.3690393177596 10.307355027599 7.4338367421809 9.7252790221019 7.1507012534416 9.986370585467 6.9555826570988 6.6465446491472 8.6749173096946 8.3365105699443 9.9049867317687 9.3705191982852 6.7473910592664 7.9879544693992 9.3025768354048 10.425785705045 7.9769668501644 7.0442253530945 6.8109328279601 7.9078723608032 10.908768048688 11.411883361841 9.6326192899436 8.6328038411903 7.6952658915315 9.0487178638858 10.179718471566 8.6062594936152 11.137365173994 10.198630963647 7.8664170125978 6.4327596923836 9.2654995048621 9.8853041480652 11.020817049191 11.466946327968 10.51091330252 9.7646059556656 11.067741359327 7.7446012278696 12.171773012029 9.2819891737858 9.0095579130773 7.7746753135445 10.235052760144 8.9956581266296 10.812811602063 8.9246931284221 9.2548781941865 10.428817591739 9.7408155682283 11.062405448146 11.060721057379 9.865338261023 9.6484369281605 7.3755047226814 11.709254750691 7.8088508188801 9.9290089138685 10.629515963534 9.6739665992001 11.7386702891 9.69130038528 9.7340165129848 8.6412213914974 9.7389816127329 9.3233240719255 8.3433519735785 8.1270558164657 6.9316210531936 8.8480247184161 6.7535307386459 10.205052955667 9.571610854101 8.2405684384033 8.3804237569609 9.7582549409159 7.8686097429892 7.4227034781542 8.4620013596644 7.4902318957598 8.0965956339718 10.934483726286 9.8575186967802 9.3906332235818 8.4601934920233 8.5504341074506 6.5263733281916 8.8692003468872 5.696759051123 9.1983108228831 6.2695163403413 8.3810624321231 10.399356779419 9.6776810123217 6.9183456627835 10.16850221949 5.4913987793741 10.857657939881 8.1224959561208 8.8446049502388 11.609589396739 11.2693295889 11.045372936488 9.0592343888477 6.2718964656948 5.0057037135399 8.66376341698 10.384726895181 8.5136155692454 9.5503509791632 8.1387620169905 9.6416117507532 8.9203633230267 9.0400903824755 8.7334792168176 5.9969597557019 6.7115743295555 8.8562496382725 6.9530699804297 5.9058951227488 7.1904592128273 9.760833020545 7.4973413691449 6.0431387635161 5.2468546426398 10.429985960774 8.8621298413592 9.3466688136921 8.5575684531695 6.589618296518 8.3653396482995 6.6837948229733 6.9476282747784 10.634336003279 9.0461800746528 8.7214906938431 9.1454907832254 10.693033361389 7.9625155253309 9.6031371800481 5.7826590783978 8.9942871961382 11.447398365705 11.265540716956 8.7550360695316 7.0716015822744 5.4997590289042 4.4866815037181 7.9403244757244 10.144126943039 7.9227601300394 7.6923050082537 6.5614381906944 7.7593113391677 8.5077011161311 10.615554136993 6.2251635798094 9.668892998347 10.584126375875 4.8276066221776 9.1760796375273 11.409480064875 10.370998075699 6.4386777716512 8.4917496657958 9.2699216510591 7.4700240321469 6.85851993245 5.9412846262765 10.199672872661 9.8179362852516 6.0322899500429 8.4780626356409 9.1068232593152 7.0770068351801 6.2620396527625 5.6249674694646 9.9317294803733 8.9603363187948 7.1808851362244 8.3491008961853 8.028420087142 8.3630165463021 9.1349894162776 8.2487526043335 7.7961076345086 9.994822747685 9.3667852715899 5.6603631854844 3.9938015101772 10.156322571396 6.5799781379213 10.790557479508 9.2997009390612 6.2434180372717 9.6507274807665 4.4894554844685 7.586193211393 3.9618162841818 4.9417757770531 9.3323674163487 6.3164493618092 9.5172356943675 6.1015006436273 9.6331631305528 9.1452257429926 7.3117407873858 9.3407084475953 5.6957443690142 6.6825197142217 7.9515389139655 7.115739510005 8.4543192316427 6.4030206716724 7.9268376231368 9.6903832417847 5.9240379942288 5.3818847029507 8.8126152571036 7.9926617911793 11.563695910625 7.9243152807905 10.553491384775 7.6388526568654 9.8027941920319 10.089092973405 6.7864104911943 4.6028684300409 8.531503995345 7.5630315013787 7.7303894452814 7.7856417392027 11.288625463096 9.7274009981187 5.776741401228 9.450182578894 9.9366479857543 8.491063963583 8.6977389670254 7.8710801489636 8.4534586552202 7.6015902349087 4.596137645391 8.6177953022518 4.8686175112821 8.2632413278007 8.7193925027767 9.1925946653688 6.768503126637 8.2638912304783 8.909942319167 8.602114145114 8.2877354739803 6.8793830023475 5.5433721772202 4.4953825791065 5.7145150030837 7.99091945699 9.7761091043197 7.8894010973156 6.8877942526118 7.6816808818419 6.2015765225106 11.899224605641 6.1430123211582 10.860643112664 9.6958432248298 4.1595513271639 9.0648631120791 9.2009887716297 9.1501821113208 8.5593340822789 7.5256767039353 6.541289618148 6.4322687852921 6.2447603169152 7.6851599724985 8.843522444952 4.3623887676445 5.5154616977509 4.8822152138634 6.0794319674029 5.3848362248269 9.24767883166 6.8778229569066 8.5833884530563 5.3085219772664 5.4808516884451 6.1984784332189 8.7798599536956 4.859372008745 4.766754795691 7.3403195294583 6.1284510579256 4.1236801671553 6.3035561829704 10.385810677104 9.6899880378056 7.5356972608611 5.0684888072837 5.721068419702 4.9164668089458 7.0274106138002 7.5757833913132 7.3742660219558 7.598349296397 7.4206590069366 7.8010989577253 6.6383847781701 7.4441465333257 6.8706897571212 7.5077675796033 6.1435540025968 7.2854889078905 7.5524535573313 6.6179741933718 7.0950873205696 6.9906275960721 7.0187730698818 7.2747586783797 7.2909755202604 6.763526214542 7.0744643055638 4.5633225612606 6.0804572822978 9.3501553310234 4.8878682646429 10.383113499057 7.3495193467235 6.9789795203896 6.8698160366716 7.8324358410763 6.1634370240131 5.3095952170928 5.3028422455485 5.3748593206679 5.8684972875578 10.1158964058 12.352718950864 10.818762827282 9.9982878477674 5.5666960837242 3.8042676323878 6.1075434929902 6.5687959641781 7.0061069010824 6.0645014460134 6.4286886619242 5.5068011979166 6.6089756625174 7.5665299212157 6.9546776845766 6.9875285134141 6.8046386440619 7.0107822354715 6.4321830968998 5.7183036147266 6.9663979384651 6.9171775751487 5.1435703459151 3.6910698521719 3.3815665132796 4.9605001138199 4.459924042113 7.2217285743924 6.8557459606992 8.3766517790452 6.8316588041229 12.10156340619 11.482589226483 4.5009030969137 4.96519659696 9.07857478765 5.991970058955 4.2640910556119 4.4096607061993 5.7686191872499 7.5530321654716 11.173271609332 7.5903336938917 7.8362425206309 6.1427498884723 5.9925373582278 11.264313414869 5.3635202712883 8.0533659572193 12.224989948042 6.1315661969457 4.7014706826291 9.0117258712258 9.0917193586205 5.8180777350922 5.1863409483936 4.9728559429181 7.1474787474208 3.8172100396186 5.7283928739571 3.8776651225702 3.8372682559183 4.4380472835441 10.041011396508 5.5524272627912 6.0189990466293 5.2763667372884 5.5913518775902 4.9582277583352 6.6007224345955 10.497586504792 4.0311813684528 6.8236139319249 3.5569849791119 4.3998171251793 5.6105969441146 4.8483074011733 4.1250455081376 4.485981241358 4.7999552204649 4.7785764824485 5.7402327282643 4.2088185881072 9.6086804146668 5.6667007873492 4.0742599715895 4.4738532253451 5.3343740465156 5.2156545672134 8.0477163596882 7.7777585982899 8.8792415572237 8.5787587347235 7.3861998771614 8.079061613865 6.6066246267312 7.1547286578412 8.4342572913576 7.946309341891 5.8883472721007 6.8414886095876 6.6296502929968 8.4710387390604 7.3825501750824 3.6544525254438 5.4939884261326 6.1782936355958 4.835261489818 4.835580721547 4.3034272338812 4.4220731968341 4.1757147303958 5.1486781216622 4.1579442610457 4.9435160834911 5.8182140669365 11.277672400203 4.8613620824847 5.8572139880867 5.6729890747302 10.568716399494 8.2953792684629 4.0689843067379 3.9533802506476 3.6974044250881 4.8131849028577 5.3948217166404 12.304399552357 3.9949620611236 4.5644033896706 4.9265883940296 3.4461639264494 4.6780481806523 5.8724092563569 5.1655782077617 5.1287936506138 4.4741614237149 5.3401440236364 4.9715213038651 4.2124399732184 5.5144223020873 3.6675900646239 4.1814566493189 4.9413721554357 4.2905363684714 3.5422265291977 3.9947805500826 3.6826074371271 3.8809815545966 3.8335128459767 3.8134339502346 3.7964246131577 4.947130571047 4.5919465219347 5.7811285430376 6.0970911913943 4.0664507392423 3.6284433428532 3.5115420168024 4.4623327465312 3.6279183286859 3.7151479655596 3.713420213337 3.7255036451589 3.7728668118226 4.3650698988232 3.9458815525195 4.752288476978 3.522938025324 3.3968590891691 4.45489863689 4.3772533364402 3.437176519479 3.4209099105589 3.7082335169997 3.7266053722795 3.6316690778752 3.7515314876623 3.5694537495034 3.7689851435051 3.9151282361722 3.6249186946609 4.181801268915 3.723724676097 3.7302937729136 3.4917931381604 4.3949562103717 3.4461468246922 3.5424887307125 3.5458178313314 3.4121915371181 3.3859494458878 3.5578511598949 3.5400867426715 3.8353234221565 3.6794333178245 4.5076680470794 3.5336392819734 4.133742927392 3.3770425130683 3.4796908010143 3.9008724516494 4.0125464120869 3.4689437012395 3.4572721788259 3.4098339880121 4.99883855978 4.034101160851 3.8888933552672 3.9808368219414 3.5114876728295 3.4387662951402 3.3912580708138 3.4553571759805 4.2421843967506 3.5001115118675 3.4988436681897 3.6200903803621 4.4977475292572 3.9596287506399 4.0565309934853 3.3635569226485 3.4209800132856 4.37734486243 4.0957843035128 3.6604587095909 3.6056238627355 3.7798098117987 3.3647017925425 3.6135622331612 3.6844299651437 4.3376518307308 3.5363236269458 3.5812320891502 4.0905543739213 3.5747355941848 4.1024778645122 3.6546721511197 3.6422073500962 4.3616484792362 4.5217060996051 4.2507435377997 3.5593687391911 3.7880063577528 3.4557430786432 3.3891273231853 3.4339923122901 3.4991014644211 3.5884537141382 4.1941572946997 3.9001614390663 3.8296656051906 3.8833596164582 4.0499901780693 3.7733323514868 4.3766281204271 4.3515961806044 4.3440666475912 3.5756320974651 3.5810328202941 3.4997968140763 3.6652266433359 3.9840433965843 3.4169173025116 3.5003626756146 3.7599660693242 3.5518444757531 3.6800556293114 3.6051426848445 3.8401907099028 3.8938228089069 3.9317354559341 3.7931611741509 4.0311300688292 4.1242489320447 4.0200278198059 4.0085153605449 3.9381058321042 4.0855071894169 4.1257463782027 4.0806627305796 4.0296676808645 3.711228635815 3.5685229005508 4.1830433917995 3.7554880329313 3.6494288225782 3.7815846031275 3.872250884814 4.0289959666283 3.7730477643536 3.8930181378516 4.0879726951165 4.0259905680919 4.0837401865108 4.0708120563199 3.8797092642447 4.1033827667106 4.0491640824855 
SCALARS 200.00_0.35 double 1
LOOKUP_TABLE default