# vtk DataFile Version 3.0
d-2__ created by libgimli-v1.1.0
ASCII
DATASET UNSTRUCTURED_GRID
POINTS 570 double
14.5	0	0
14.25	0	0
14.386963504964	-0.201738469428	0
22.399299936458	-0.310870122736	0
22.129824335287	-0.229914148082	0
22.126320781198	-0.518791771445	0
8.472303742627	-0.591754876635	0
8.780507935475	-0.76092407121	0
8.82173151259	-0.349253271447	0
18.663262297679	-0.667179415955	0
18.934786529245	-0.453308328646	0
18.636898038907	-0.29588182328	0
4.016904362632	-0.85330676142	0
4.076038737616	-0.331410355179	0
3.713721571226	-0.470767763626	0
1.89953779852	-0.269343012166	0
1.633800503821	-0.203067612233	0
1.644492760828	-0.441295523531	0
4.368408037607	-0.250833874131	0
4.337474161742	-0.544420985055	0
4.67745607622	-0.378433532554	0
1.406172533733	-0.772361039307	0
1.913288206557	-1.218576310882	0
1.90687689783	-0.651895683444	0
2.5	0	0
2.25	0	0
2.347047126858	-0.185539804102	0
1.374000926997	-0.300418771701	0
1.25	0	0
1.114902662369	-0.201591505098	0
1.067401015567	-0.470108640981	0
5.75	0	0
5.699780065382	-0.324747799653	0
5.924584257371	-0.172748359932	0
0.883560935405	-0.231136840652	0
1	0	0
9	0	0
9.117836368049	-0.253904480787	0
2.625577516194	-0.346770599322	0
17.859079774019	-0.943547525024	0
17.535029634209	-1.703182852412	0
18.338018094476	-1.366069799339	0
19.932263871771	-0.826489183604	0
19.881635677668	-0.346204516721	0
19.622287080959	-0.573770479943	0
1.5	0	0
1.75	0	0
23.25	0	0
23	0	0
23.109690227386	-0.220340974338	0
2.75	0	0
2.142562771237	-0.172460438312	0
2	0	0
23.332392704446	-0.202507275941	0
23.5	0	0
19	0	0
18.75	0	0
18.888143078348	-0.195773419804	0
2.90152418742	-0.185685383897	0
7.612175045312	-0.180627982114	0
7.527150943175	-0.401430797998	0
7.881917737402	-0.30462800112	0
25.630635194756	-0.512020961038	0
25.243766894324	-0.80097755811	0
25.758031115142	-0.952821630144	0
3	0	0
28.84859809239	-0.201276387394	0
29	0	0
28.75	0	0
4	0	0
3.835807353334	-0.199536243303	0
3.106904732949	-0.178783649348	0
29.25	0	0
29.092446172194	-0.305987136665	0
13.5	0	0
13.667851890428	-0.185102765244	0
13.75	0	0
3.75	0	0
14.407363653886	-0.441423674912	0
14.125469935998	-0.279652141152	0
4.25	0	0
5.061980176718	-0.407989246181	0
5.335512032876	-0.269401530321	0
5.113979852892	-0.173834924157	0
11.882046000841	-0.812345557852	0
12.478640631525	-1.146569360669	0
12.244190771573	-0.565936619511	0
3.633270844505	-0.195395238442	0
14	0	0
18.378272976509	-0.514977451159	0
5.5	0	0
9.619519097921	-1.16461851757	0
10.030576753886	-1.587265312651	0
9.961661342999	-1.070235523667	0
5.25	0	0
5	0	0
13.157975569138	-0.830425793913	0
13.83833027638	-1.238601004239	0
13.671302359608	-0.710707966059	0
11.325917093147	-0.8366783502	0
11.612143285947	-0.506264798476	0
6	0	0
7	0	0
6.83842404292	-0.188923754932	0
7.11236984822	-0.391746146843	0
6.631875629497	-0.169178192832	0
6.75	0	0
3.21002197083	-0.595267231049	0
3.445510026908	-0.608065324465	0
3.362318141622	-0.306501255187	0
6.120159502895	-0.164221934939	0
4.538525595924	-0.906226152762	0
13.233775457127	-1.737244787017	0
4.5	0	0
16.138065841822	-0.472802517973	0
16.126746690205	-0.221608117926	0
15.859319180798	-0.326402762318	0
26.080401003391	-0.227842452866	0
26.25	0	0
26	0	0
3.019224421113	-0.401469974918	0
8.234901607028	-0.35771789179	0
8.518285578354	-0.242327591839	0
8.328777073389	-0.153008859619	0
7.25	0	0
7.400656881666	-0.195280611572	0
7.5	0	0
5.385509485898	-0.709154879541	0
5.948697127931	-0.745234910621	0
8.75	0	0
8.5	0	0
8.25	0	0
2.214249105773	-0.404278959534	0
2.896561357202	-0.792481120253	0
9.25	0	0
4.920911116561	-0.192028847294	0
9.651670336652	-0.200847798694	0
9.849824537955	-0.19917205686	0
9.75	0	0
10.095049354068	-0.315754204277	0
10	0	0
3.25	0	0
6.738406513564	-0.710129601907	0
7.121614580011	-0.943026074581	0
11.345829942703	-0.314788260019	0
11.25	0	0
11.104427225455	-0.188863495516	0
6.052412255932	-0.372556729023	0
6.373371846535	-0.274163514827	0
10.25	0	0
10.380281579003	-0.241092027437	0
10.5	0	0
10.75	0	0
10.909079077441	-0.189427130481	0
11	0	0
6.25	0	0
6.5	0	0
4.75	0	0
3.5	0	0
10.672815698565	-0.318467932684	0
10.772487906066	-0.787092734739	0
11.020900486567	-0.439266778492	0
8	0	0
7.75	0	0
11.5	0	0
11.619450354737	-0.231443672836	0
11.75	0	0
8.139317726831	-0.163309591658	0
12.25	0	0
12.158949464947	-0.235415698299	0
12.412455385193	-0.275030800337	0
12.929165084344	-0.221336108042	0
12.686337592177	-0.258437422252	0
12.900449535554	-0.462768612232	0
12.5	0	0
9.405755833308	-0.325979504745	0
9.111697192308	-0.594170467817	0
9.457257345083	-0.753685223931	0
18.101369157139	-0.618560521812	0
18.336839281097	-0.861122419318	0
10.385948631267	-0.570640149046	0
9.5	0	0
13.411260455969	-0.342646276848	0
12.643108055516	-0.590179775368	0
13.137744715761	-0.195204172124	0
13	0	0
21.25	0	0
21.358341816502	-0.326561417551	0
21.5	0	0
13.816492716597	-0.40394453634	0
20.25	0	0
20.423452336785	-0.313445603959	0
20.5	0	0
17.789350393153	-0.390447709085	0
17.987794057246	-0.401472255242	0
17.881276545163	-0.206424156589	0
19.564465692234	-0.270867872644	0
19.290725118801	-0.49926248604	0
16.392319441256	-0.29915360323	0
19.443730892406	-0.923508713428	0
20.457987075478	-0.803203365193	0
20.167450719332	-0.505159975143	0
0.103762538371	-0.253013629949	0
0.267057015134	-0.483604909932	0
0.374713194419	-0.2320817565	0
13.25	0	0
17.415572543912	-0.230682214253	0
17.5	0	0
17.25	0	0
18.108153655084	-0.208141099276	0
18.25	0	0
18	0	0
15.75	0	0
15.544586046819	-0.246453491997	0
15.122708481244	-0.193620038745	0
15.25	0	0
15	0	0
19.75	0	0
24.149237782749	-0.319013340846	0
23.842766599446	-0.577371105011	0
24.183995039966	-0.73159476451	0
13.871646321742	-0.17394291424	0
23.862588150518	-0.245417872715	0
16.84024277193	-0.203626765466	0
16.704049384397	-0.435508179396	0
17.112673188265	-0.38804641709	0
24.75	0	0
24.832880292394	-0.290571430318	0
25	0	0
16.40158555625	-0.755912194683	0
16.850299990829	-0.757941865332	0
17.75	0	0
23.567455674596	-0.325197491724	0
16.25	0	0
16	0	0
22.645812614293	-0.197864648876	0
22.75	0	0
22.5	0	0
16.75	0	0
17	0	0
24	0	0
26.914424714815	-0.337869958787	0
26.621963281699	-0.624626679172	0
26.977877660759	-0.778408201088	0
26.622424322919	-0.264588309935	0
19.34462271879	-0.199329831305	0
19.25	0	0
19.118057075065	-0.225686869553	0
19.5	0	0
26.75	0	0
27	0	0
27.5	0	0
27.604422363523	-0.298869962794	0
27.75	0	0
17.650384190064	-0.227839036584	0
18.343198956448	-0.236734208617	0
18.5	0	0
24.25	0	0
20.143897114391	-0.233773711865	0
25.5	0	0
25.25	0	0
25.344389320279	-0.31693710653	0
21.059546193318	-0.24845941382	0
20	0	0
25.842927934822	-0.248287716678	0
25.75	0	0
25.613904645132	-0.216025146631	0
21	0	0
11.763551406169	-1.481607093928	0
30.981104050195	-0.5526690913	0
30.873880294509	-0.217692518774	0
30.706626759758	-0.34945139905	0
20.75	0	0
20.85240828135	-0.178025243856	0
23.75	0	0
20.66289882074	-0.189089155251	0
30.204950808504	-0.791758966623	0
30.715535843381	-1.149995259266	0
30.543724897762	-0.572259098027	0
30	0	0
30.180216671806	-0.343473673313	0
30.25	0	0
23.229584388362	-0.458653998547	0
29.5	0	0
29.623391954444	-0.322069028408	0
29.75	0	0
21.618913855927	-0.233585823579	0
21.75	0	0
29.348490380579	-0.521100538161	0
29.36294710412	-0.230601226356	0
22	0	0
22.25	0	0
28.25	0	0
28	0	0
28.129259193923	-0.314252106503	0
28.44374413871	-0.484576386004	0
28.100199615755	-0.812038297775	0
28.649230646972	-0.871769248311	0
28.618403654115	-0.227691192115	0
28.5	0	0
28.387848605749	-0.205892081491	0
29.054768525933	-0.708603081552	0
29.344906532636	-0.846887322836	0
26.327430876245	-0.35930637997	0
10.349120516034	-1.04150119828	0
10.894920134778	-1.514321070539	0
24.59640839418	-0.191760546865	0
12.75	0	0
24.5	0	0
13.102881121377	-0.411296235356	0
25.099388239946	-0.214879887129	0
25.97986022697	-0.52841375324	0
24.398993403151	-0.196312410538	0
17.860840746535	-0.577367743328	0
17.566481510048	-0.529340016102	0
26.5	0	0
16.637148248735	-0.188015807345	0
18.183918302467	-0.396443618316	0
27.159348252167	-0.205297590358	0
27.357530053515	-0.198815038154	0
27.25	0	0
15.060354649709	-1.112587998155	0
15.51532665618	-1.043792149387	0
15.178150912169	-0.713100616689	0
10.051363365948	-0.719159376333	0
14.661248691948	-0.27865166374	0
14.75	0	0
27.868836823455	-0.217301839861	0
31	0	0
30.75	0	0
-0.020273477909	-1.415389842481	0
1.054972770973	-1.487485199502	0
0.512583677021	-1.0438154777	0
0.75	0	0
2.361419414365	-0.794513604096	0
29.890297721653	-0.2433406165	0
30.473599299501	-0.238575611274	0
30.5	0	0
30.660802173874	-0.161931182737	0
28.783812899585	-0.467926883932	0
4.937022539393	-0.72440615077	0
6.696914540879	-0.380672503721	0
7.434272221796	-0.695675918868	0
15.339606453815	-0.166204802571	0
15.281953315711	-0.388999642276	0
11.893544445085	-0.335972898148	0
12	0	0
9.753796445798	-0.478866225926	0
7.720012958977	-0.638314519759	0
21.871398197179	-0.313006985103	0
21.615176662754	-0.521922347305	0
21.856785525528	-0.665128848631	0
20.792152536902	-0.448319093295	0
21.109577821412	-0.527879642114	0
21.360297691811	-0.734200004244	0
15.547854961707	-0.580173571081	0
24.496861814148	-0.467031445896	0
25.067351422649	-0.463427753535	0
24.81263825963	-0.684738154192	0
22.865620821195	-0.218348593093	0
23.443705587002	-0.773171720633	0
27.277617447467	-0.489224417775	0
27.863714790534	-0.471681393437	0
26.239117668995	-0.863279739365	0
29.896797054636	-0.547765129844	0
29.612773839625	-0.699757135752	0
29.867172666547	-0.87444432816	0
29.610354212963	-1.521444655905	0
29.59548165142	-1.071765512911	0
29.115129171034	-1.220660174798	0
31.345359428525	-0.458952144926	0
31.144859415042	-0.241304201582	0
15.919565295974	-0.746550096707	0
16.063006820294	-1.289595303187	0
16.5	0	0
14.900855313538	-0.178071167744	0
14.161016743654	-0.72559708689	0
19.011498044983	-0.834202892304	0
16.760433281999	-1.263698818643	0
17.280361389946	-0.931704507314	0
-0.627742252535	-0.296285438777	0
-1	0	0
-1	-0.5	0
0.625738545692	-0.228405936136	0
0.5	0	0
3.313957665883	-0.865581185485	0
3.619156095452	-0.800599314657	0
[...]
CELL_DATA 986
SCALARS 160.00_0.49 double 1
LOOKUP_TABLE default
6.0956291909621 6.8651944858722 6.9403604626411 5.6001600355615 5.1514046162223 6.7048698739873 6.1721891783758 5.0433342446493 7.0376695987145 7.4398868607402 6.6906258527786 6.2318767524696 7.3139478603843 7.6139767127665 7.265276428059 7.4724468105321 4.051243989027 6.3063498008057 6.5546059398519 6.7032194827297 7.1888769533628 7.0050193560743 5.1216937123495 7.0353195363107 6.8434980822581 6.7174609331348 7.0483591866049 5.3297230750112 6.5385842200169 6.6172771297309 6.3447918984583 6.4205058767054 6.9524948021165 6.3583090995153 6.2810173610972 6.8003338703788 7.216342727172 6.1433073931077 4.9882220765539 6.3398095877813 7.2670693661993 5.5174724998922 6.5243865575861 4.2915397852899 5.4782718734375 5.6572133372386 5.4460499069931 5.8322641377441 5.8076575367134 8.0271043417626 7.2481325831443 7.881523205124 5.1722070250784 7.0815211590181 5.4436080277964 6.8938297794517 4.2988040304028 8.0150275976101 7.063405719612 8.4459046036636 6.9531081493887 6.3022816721415 7.7978265550688 7.4267702366835 9.0151162453552 7.7209972909291 5.6929799935255 5.4824643031582 7.7960330253545 5.9565249047208 8.255553210626 6.6705115242952 7.1918743915097 7.4376617072988 7.1400499375159 5.7555306721512 7.9076371691133 6.2948133925763 8.7524225079079 7.7816602379865 6.2305030405559 4.956018231966 6.3183707132155 6.81688699553 7.7023402889736 7.5731089720097 7.5676079950569 7.2117946927603 6.7710882617799 9.1845069586621 5.8173830533317 6.9277461610063 5.8145479909767 8.5837838258015 6.6985907067999 7.1698809820137 8.051815956206 7.324915034931 6.755386574043 6.0824148512106 7.0505632174533 6.9633107544912 6.8449190637612 7.2350926770007 5.7512632717415 5.1887814064004 6.8962255346836 5.9847099700708 6.4136731842374 6.7142366799795 6.2467287810639 7.2426102219843 6.9443448508424 11.055750969808 6.8442321577591 9.4842912471461 6.9888180192485 6.6491405886273 6.6518226573713 7.0339363487452 5.7659526166979 7.1624640395742 6.7126560938972 5.8090273552286 6.4654255475318 6.1853827031052 5.8490565718957 6.0643191546278 7.4302421820617 5.9798445040355 7.2844654412587 7.8263796043569 8.1427689231369 6.9108224621706 5.5449406834778 6.2308098675181 6.8262364910304 7.305313946381 10.143687320057 6.4364063367428 7.3385678377243 7.3410820439219 6.5290719626889 5.8766998320516 7.8792562732918 7.4191010622044 8.0731165872014 5.4900088953874 6.2906562755802 5.8872811773292 8.736224773918 9.8078496397945 5.9215046832141 8.4517818713997 8.2389043742097 8.6503378796058 6.6444744562064 6.7651564094487 7.4176268250659 5.9945679769518 8.8174801104141 7.6674525555932 9.5162823673814 8.8769324551916 6.3583948566444 10.296696302597 4.8615786067431 7.3131275048082 7.7144272475025 12.577293687223 8.5278694262414 6.6091431067377 5.297978130433 8.8697107119322 6.4294817423531 6.4892554143358 6.3551867664349 7.5091628337059 6.8143514488168 7.0933908609741 5.6560888745986 7.9226866828359 7.3328753937288 5.4097472948501 5.5327798837374 6.1967335204551 7.3421087019013 6.1740002998704 6.7799394633878 5.8029944973664 5.998221574908 4.9819691176738 10.035875651527 4.9679555336146 9.0216010065161 10.141453147694 4.9374013275916 8.2277959592439 9.1682281851131 6.6357596028607 7.9389925707574 6.5450903182587 7.1118717932932 8.0359096422837 7.0234933136154 6.0423590697459 6.7169243908992 6.4395811077242 6.6232135370122 6.222108711745 5.5673909264532 7.2047554783501 6.1041437639162 6.3582575392442 7.6385415685488 7.3066067741603 4.5068641873276 7.3981876986328 4.9139444575274 6.4463610794675 7.6789469643491 6.7923078442974 6.9870110948854 9.1502818415103 7.4692083412879 7.0472838193758 6.8659192347101 7.4623921187771 6.4349218575444 6.9093734764794 11.019424168205 4.3707760800211 7.3610349359794 7.0630591582566 7.8211687924126 6.1676993588169 6.6453112798075 5.5796317525498 6.9246264585071 6.6242724460221 7.8461540180181 7.007291788348 7.3499127605485 5.6904666277286 11.493571372171 6.9033673501414 6.6166087524647 10.757142058152 6.2076866944462 7.5656142783027 5.7958241685312 8.0559139993042 5.3224675888102 6.5657831366227 8.1876228424037 6.0067091411136 6.933362867495 7.0257699963874 7.2231149542622 5.7107160666872 6.2688935248633 6.007851007951 6.5090472807748 6.333097485094 6.3695850985535 7.667874866988 6.350846540419 5.9161428945822 7.8983951781666 6.885680457164 6.313321347631 7.7853109482714 6.7500856797819 7.8117927964389 6.5649710981277 7.4280195121068 6.4436104660584 6.7813957230326 7.0259335423561 6.8272287185017 6.2691913027749 7.2989761309681 6.8848839509787 7.0774549451177 5.5167894757689 7.040293329841 6.7871169547921 7.2733868922921 9.0833133664285 7.5247928084643 7.0064254484874 6.5791117388953 6.0794155162779 5.9331274658199 6.5837654774329 9.7707952221355 6.5211799800048 7.3973627208254 8.043972134402 7.604293458319 5.857453059327 8.4040606173442 8.0466691818738 7.4959412923857 5.3731417757732 6.3576833710175 7.9625035547929 7.7570008313467 7.4125277780043 6.7323628335418 6.9912516138232 7.1113659103193 7.4973662501934 7.3920639262756 6.6469148579232 6.1487500789579 5.5389604820153 5.9831850411409 6.7968672282599 6.4182153734396 6.5533436143964 7.1599592353291 8.239155458412 7.1478844358814 6.3834340740616 6.4773004707083 6.3821611451014 5.6965740355201 5.7858413175651 4.4203841824909 5.7870405626569 6.41088240299 8.8261932442998 6.8100214704966 6.9160784669839 6.6426377748708 6.6976037365433 8.7049110808329 6.2873039666091 6.4126490398439 4.5199467488923 4.840652609727 7.8930077759729 7.4938721923688 7.1424015190684 6.9482122877382 8.3960779717001 10.30310095277 7.06781515778 6.1157569031579 6.7712356504595 5.1563244832969 6.3497983529783 4.9489678581613 5.9010232901348 5.4433211918159 5.1196710742913 5.9927977365049 5.4360241020486 8.5222260859311 6.2291681879916 4.58599236109 6.0287572153396 6.1770807867444 6.256357913043 5.3245113209005 4.8821271372906 4.4170982665827 6.4898763362383 7.300527949473 6.5802429468497 7.1138936386893 5.4280769588806 4.8249843991233 5.8722531143043 6.2798430357978 5.5241522642787 7.3098782315558 7.896643951153 5.2391045135642 4.5648888276097 6.045579608894 6.7129395753884 6.4571626270225 8.1323793743281 7.3782382312434 6.2540337433466 6.8160701864006 5.6189936986941 7.2344833482523 6.4687146319437 6.0999164070568 5.0344602259172 7.0539287501324 6.1094955395583 7.260307447908 5.8105833909941 7.508722524566 7.391907922765 6.6233237535717 6.6753834706232 7.86123371403 7.2669598821896 7.1248516272247 4.9122892161196 7.8760504933801 5.1520985063394 7.4905095400737 7.7021545110974 6.2895032311583 7.2977611594027 6.6807112176541 6.6538028142005 6.0878410276126 6.7904175794055 7.3162118755795 5.6124604260274 5.9267862365776 5.0494039510744 5.684118998696 5.2031452784066 5.8869492955194 6.8140383839713 5.817263723164 5.8458180967374 7.3292192455334 5.7978397405198 5.5047218309364 6.3163559375243 5.5969015142906 5.8990379413422 7.1843222213218 6.7431759362272 9.3170207431173 4.4579560296125 7.1713499636762 4.8925618209705 7.267075561343 4.4175837693867 7.2405138969797 4.5264658669389 6.5105290982609 8.0304352882766 7.0428294670279 4.6023772324143 6.2994508373857 4.1007036200635 7.4676842850189 5.6517744325188 6.0576397206906 7.1631790599738 6.9534508955202 6.9216224251209 5.4882451542646 4.8627327844526 3.9220159425393 5.8835375345062 7.1610930834649 6.2771249281056 6.788110153169 5.8220756909674 7.9239312520916 6.1199282495285 6.1071178679101 5.8147653693905 4.1837554134971 4.9581651114918 5.8320805405114 4.6329150684267 4.3056767351044 4.7859357909877 6.2686385652037 5.3320092998175 4.2358194429335 3.8601793947098 7.1681329353478 6.4529497360995 6.401580938319 5.4077201735844 4.4434774969553 5.2108152191619 4.3886037611336 4.7898668777134 7.6553335298386 7.1132990062484 5.7115858370829 6.1063768914252 6.8464309196318 5.9688863860984 6.3767767835868 4.0885326428341 6.6115378939993 7.4758624703771 7.1064829862368 5.7265732549717 4.9361380173434 4.2332276139489 3.6014992061896 5.1368848401373 6.722617196827 5.3624268977716 5.6657160110761 4.6284663077727 5.1487756012935 6.6252773880266 7.4512868217212 4.7527953161957 6.3224421065193 7.5142829728264 3.8240697884118 6.4870989518365 10.093657388562 6.3079243770874 4.3760138833816 6.0995340840828 6.7349419006526 5.0736345665869 4.8234246990369 4.1602426069216 6.866531323413 6.8672083040717 4.4834716512104 6.0432621570272 6.8101049945694 5.0768343013221 4.7889356004221 4.1927319254975 6.5389731884825 6.3047097323876 6.0005352062279 6.3382258276629 4.6747869532503 6.395529282799 8.429149791042 6.1539592042464 4.6639028393352 7.007282381758 6.5270389263685 4.4725329361119 3.4233799080381 6.3087636750246 4.8958839717648 6.9024563835462 6.865874672098 4.50264495816 6.6285645400987 3.5284824527327 4.7946463281707 3.3757331965376 4.0217710686372 6.5761668052377 4.6931130391224 6.099266756639 4.6833726969703 7.3148904873933 6.620340695709 5.0139231983045 6.8016817086004 4.4955542763457 4.7923883432337 5.2433522894337 4.8240967638241 5.8257583589774 4.751614140267 5.9345572863906 7.6352328646214 4.5029861509306 4.2748202870758 5.5967317473129 5.0295290804389 7.0377021660935 4.907892228467 6.8199720250523 5.606454141255 6.6849674221901 6.4162344817152 4.5889898754313 3.5786000578272 6.2725727206286 5.7324341996495 5.3137891429499 5.3197466637757 7.7718600050975 6.6267331787248 4.5297245717268 6.1803941390466 6.6278101246373 6.4564406051245 6.178078045678 5.567269543158 5.8834848748274 5.3068446637243 3.7672114712456 5.5749005174875 3.8089724558392 6.5496418483923 5.7389443438273 5.9868484790284 4.7211296656895 5.5120888031823 5.9700909260708 6.0046880708803 5.7230536929228 4.7778584849325 4.0584299016405 3.5559806464993 4.16642389327 5.3760734458626 6.8345198409204 6.2286462600749 5.6709386751437 4.9326007509209 4.1956838322164 7.3389298925849 4.4210389047522 7.6656266404075 6.2321534944559 3.4523178950355 6.0717075179918 6.7236835140971 5.6899828067171 6.703279851631 6.1159085709849 4.5530334398039 4.6259592496034 4.5278598440424 5.7480725456499 5.796361386028 3.6186164476663 4.211578058895 3.7600535853342 4.3211617893369 3.8907571898507 6.5687999600302 4.5494886692211 6.8281983921689 4.1473203285593 4.2690659603131 4.309640942028 5.8112512828985 3.936411750962 3.8548188197825 5.119394312793 4.2149778968936 3.4575385935885 4.9615699855408 7.1002883305814 6.412972784705 5.5962845582368 3.7550360835212 4.3341743218955 4.0392966996092 5.6511645565142 5.841716392329 5.354446068228 5.4283937972624 6.3235522148932 5.3374645462747 4.7342518567887 5.7846898622801 5.0551278007481 5.5733390332517 4.4380381303524 5.4321358559865 5.7188146132015 4.9850643018545 5.6454556523711 5.3599835596656 5.7065696344681 5.8910854149392 6.1187816784959 5.2286604216001 5.7949249252393 3.7912977559536 4.7084052867439 7.0307644263053 3.9038373066555 6.8538264782676 5.7537067860918 4.9640786445427 5.1044629879211 5.1626905294761 4.2287705734046 4.1144362567178 4.2332084967985 4.0350744371128 4.4258809577226 6.7123833826524 7.5459945866642 6.9282224680875 7.6095492224105 3.9603474503291 3.4609826957944 4.4604640774037 4.6333272034466 4.7559084921129 4.6253779490441 4.8262704170004 4.4066116935879 5.1034355362991 5.6914784423696 5.3579238115745 5.3202718431001 5.2666465129347 4.8771443851707 4.9772974624076 4.1837801014139 5.5997425203986 5.4910812904943 3.9694781406118 3.3041544035506 3.253478777862 3.7321144821845 3.7330509402468 5.4675616034399 4.6457797398187 5.5894516344088 5.2046064267547 6.693227207961 7.2344852625476 3.5293772005416 3.9567462402015 6.0337347640607 4.5352547333173 3.4010332648073 3.6389131434698 4.2933171767407 5.8196772512329 6.9571205444375 5.2886479150924 6.260338896828 4.2785754920014 4.4501305601417 7.0079388943432 4.3703161843875 5.3061649919732 7.9259080920456 4.1334467938085 3.7557823631252 6.2929147561552 6.4543913040174 4.2774481331202 3.9388520825222 3.7012411360157 5.130773923808 3.8020080326454 4.0600730417117 3.3339146129461 3.3698263312047 3.6800306725127 6.7988193073731 3.966057643705 4.9130894032317 3.8322898488777 4.3993162890151 3.8757185522956 4.4741254845542 6.4329216198809 3.3173350040218 5.322681749304 3.2027225920643 3.5732121930031 4.5694093641501 3.7581172311681 3.5257676111349 3.55311970684 3.959509223142 3.6873711665123 3.9956163295958 3.5641935260292 5.7081164395405 4.3404495787092 3.544466693044 3.6356945177529 4.1048043145768 3.8950905105414 5.5254588169821 5.3557269707146 5.7227401269081 5.9102834638704 5.0287683769086 5.4657709812002 4.6243207675743 4.8707996437966 5.5255481343286 5.2852703296611 4.3790066125728 4.718923394287 4.6956971235702 5.5121484864131 4.9972366297312 3.2546618305046 4.0915204686339 4.3279402884017 3.9049943866142 3.8110486023457 3.4615914414545 3.5971313237696 3.3768884678846 4.0012107166227 3.4065634544764 3.9018888442548 4.171706580947 7.1726803307442 3.6931398012362 4.4721646742855 4.2831824575818 7.5582355694119 5.4804211091438 3.4692255608103 3.4634617076104 3.3142572655166 3.877126197646 4.3821252725558 7.1784266684185 3.4202369760169 3.7150190137106 3.9532354553218 3.2001509386481 4.0151327170888 4.4031484459614 4.0941819886792 3.9844549802207 3.5167776985243 3.9874706086338 3.8324699791144 3.4245157707682 3.9389973551141 3.2194172863595 3.4794980327731 3.9918249948443 3.9339195581691 3.2439926080188 3.3387072481054 3.1847346406596 3.3195887661626 3.2156560580102 3.3028838810961 3.3200932755754 3.884794289532 3.8017567524266 4.5368265553552 4.6529169399919 3.4699703261558 3.4079168929551 3.2349288605105 3.9054798255089 3.3579658537897 3.3771190522734 3.2548651656573 3.2688256053718 3.2596757776672 3.5111119899616 3.3166986060718 3.8269292367663 3.2318774464394 3.3502446610315 3.6792684233375 3.6445092954581 3.1931459925076 3.2019805877719 3.2436156921011 3.328627097267 3.2021141425706 3.1959410159412 3.2109817934802 3.303853551808 3.266525304863 3.2221707651215 3.5987385569018 3.287487840199 3.3943837817785 3.1984126971537 3.9660215603698 3.1741672744515 3.3113818438183 3.1730316425296 3.2048324468003 3.2661925846697 3.2222270756784 3.3853382934336 3.3505504958371 3.3958699624885 3.7217283344369 3.2182428767021 3.5303383328014 3.2225477510175 3.1722171623726 3.3611777551333 4.0689651068485 3.3754967724865 3.2900208029425 3.2683124114078 3.8265246051958 3.4186071534783 4.2270361996657 3.5901724054705 3.3902219098757 3.4722366534775 3.3729459448654 3.2258148672469 3.59537328099 3.6131613174456 3.4944669095789 3.5474817883444 3.5756217680886 3.4960421362501 3.7918550128413 3.2209267158305 3.5493693409793 4.3369693440581 3.9897478425458 3.7592602797593 3.36977445177 3.9017287386954 3.2729077491974 3.6200544294969 3.4176692673491 3.9184343929234 3.5456070968393 3.7625654576579 4.1465892302767 3.5017143350339 4.0864328875699 3.6938460665593 3.6574983529283 3.7783715703719 3.8352776529792 4.000430205556 3.796174430073 4.1119792483615 3.4699032868695 3.4535451228286 3.3238523234526 3.3668581239974 3.5643224135629 3.97658529531 4.0542713942477 3.9271782808702 3.5948417774737 3.9004897876963 4.0018644589055 4.063963334815 4.4505576305312 4.1444772777709 3.5570300864339 3.5440401872012 3.4688100581675 3.6862927432784 3.8694741270366 3.3814294029743 3.6872670353274 3.8563885152055 3.5548410468656 3.7195846599766 3.5746206632189 3.9012920510285 3.9373130509643 4.028537149662 3.8618067450719 4.2521203659976 4.2337544244097 4.1126215174039 4.0780968391625 4.0244040516795 4.1981999653362 4.2183257759544 4.2061013168854 4.1577301871244 3.8961784818102 3.5650203517552 4.3545741979681 4.0367779646972 3.7784238270431 3.9452327045483 4.1087101942705 4.1790133369024 3.8352811495455 3.9994547296676 4.2926879097702 4.3015439990132 4.3743614491571 4.3976985937712 4.174353047551 4.4423310344914 4.4021713685951 
SCALARS 20.00_0.07 double 1
LOOKUP_TABLE default