# vtk DataFile Version 3.0
d-2__ created by libgimli-v1.1.0
ASCII
DATASET UNSTRUCTURED_GRID
POINTS 570 double
14.5	0	0
14.25	0	0
14.386963504964	-0.201738469428	0
22.399299936458	-0.310870122736	0
22.129824335287	-0.229914148082	0
22.126320781198	-0.518791771445	0
8.472303742627	-0.591754876635	0
8.780507935475	-0.76092407121	0
8.82173151259	-0.349253271447	0
18.663262297679	-0.667179415955	0
18.934786529245	-0.453308328646	0
18.636898038907	-0.29588182328	0
4.016904362632	-0.85330676142	0
4.076038737616	-0.331410355179	0
3.713721571226	-0.470767763626	0
1.89953779852	-0.269343012166	0
1.633800503821	-0.203067612233	0
1.644492760828	-0.441295523531	0
4.368408037607	-0.250833874131	0
4.337474161742	-0.544420985055	0
4.67745607622	-0.378433532554	0
1.406172533733	-0.772361039307	0
1.913288206557	-1.218576310882	0
1.90687689783	-0.651895683444	0
2.5	0	0
2.25	0	0
2.347047126858	-0.185539804102	0
1.374000926997	-0.300418771701	0
1.25	0	0
1.114902662369	-0.201591505098	0
1.067401015567	-0.470108640981	0
5.75	0	0
5.699780065382	-0.324747799653	0
5.924584257371	-0.172748359932	0
0.883560935405	-0.231136840652	0
1	0	0
9	0	0
9.117836368049	-0.253904480787	0
2.625577516194	-0.346770599322	0
17.859079774019	-0.943547525024	0
17.535029634209	-1.703182852412	0
18.338018094476	-1.366069799339	0
19.932263871771	-0.826489183604	0
19.881635677668	-0.346204516721	0
19.622287080959	-0.573770479943	0
1.5	0	0
1.75	0	0
23.25	0	0
23	0	0
23.109690227386	-0.220340974338	0
2.75	0	0
2.142562771237	-0.172460438312	0
2	0	0
23.332392704446	-0.202507275941	0
23.5	0	0
19	0	0
18.75	0	0
18.888143078348	-0.195773419804	0
2.90152418742	-0.185685383897	0
7.612175045312	-0.180627982114	0
7.527150943175	-0.401430797998	0
7.881917737402	-0.30462800112	0
25.630635194756	-0.512020961038	0
25.243766894324	-0.80097755811	0
25.758031115142	-0.952821630144	0
3	0	0
28.84859809239	-0.201276387394	0
29	0	0
28.75	0	0
4	0	0
3.835807353334	-0.199536243303	0
3.106904732949	-0.178783649348	0
29.25	0	0
29.092446172194	-0.305987136665	0
13.5	0	0
13.667851890428	-0.185102765244	0
13.75	0	0
3.75	0	0
14.407363653886	-0.441423674912	0
14.125469935998	-0.279652141152	0
4.25	0	0
5.061980176718	-0.407989246181	0
5.335512032876	-0.269401530321	0
5.113979852892	-0.173834924157	0
11.882046000841	-0.812345557852	0
12.478640631525	-1.146569360669	0
12.244190771573	-0.565936619511	0
3.633270844505	-0.195395238442	0
14	0	0
18.378272976509	-0.514977451159	0
5.5	0	0
9.619519097921	-1.16461851757	0
10.030576753886	-1.587265312651	0
9.961661342999	-1.070235523667	0
5.25	0	0
5	0	0
13.157975569138	-0.830425793913	0
13.83833027638	-1.238601004239	0
13.671302359608	-0.710707966059	0
11.325917093147	-0.8366783502	0
11.612143285947	-0.506264798476	0
6	0	0
7	0	0
6.83842404292	-0.188923754932	0
7.11236984822	-0.391746146843	0
6.631875629497	-0.169178192832	0
6.75	0	0
3.21002197083	-0.595267231049	0
3.445510026908	-0.608065324465	0
3.362318141622	-0.306501255187	0
6.120159502895	-0.164221934939	0
4.538525595924	-0.906226152762	0
13.233775457127	-1.737244787017	0
4.5	0	0
16.138065841822	-0.472802517973	0
16.126746690205	-0.221608117926	0
15.859319180798	-0.326402762318	0
26.080401003391	-0.227842452866	0
26.25	0	0
26	0	0
3.019224421113	-0.401469974918	0
8.234901607028	-0.35771789179	0
8.518285578354	-0.242327591839	0
8.328777073389	-0.153008859619	0
7.25	0	0
7.400656881666	-0.195280611572	0
7.5	0	0
5.385509485898	-0.709154879541	0
5.948697127931	-0.745234910621	0
8.75	0	0
8.5	0	0
8.25	0	0
2.214249105773	-0.404278959534	0
2.896561357202	-0.792481120253	0
9.25	0	0
4.920911116561	-0.192028847294	0
9.651670336652	-0.200847798694	0
9.849824537955	-0.19917205686	0
9.75	0	0
10.095049354068	-0.315754204277	0
10	0	0
3.25	0	0
6.738406513564	-0.710129601907	0
7.121614580011	-0.943026074581	0
11.345829942703	-0.314788260019	0
11.25	0	0
11.104427225455	-0.188863495516	0
6.052412255932	-0.372556729023	0
6.373371846535	-0.274163514827	0
10.25	0	0
10.380281579003	-0.241092027437	0
10.5	0	0
10.75	0	0
10.909079077441	-0.189427130481	0
11	0	0
6.25	0	0
6.5	0	0
4.75	0	0
3.5	0	0
10.672815698565	-0.318467932684	0
10.772487906066	-0.787092734739	0
11.020900486567	-0.439266778492	0
8	0	0
7.75	0	0
11.5	0	0
11.619450354737	-0.231443672836	0
11.75	0	0
8.139317726831	-0.163309591658	0
12.25	0	0
12.158949464947	-0.235415698299	0
12.412455385193	-0.275030800337	0
12.929165084344	-0.221336108042	0
12.686337592177	-0.258437422252	0
12.900449535554	-0.462768612232	0
12.5	0	0
9.405755833308	-0.325979504745	0
9.111697192308	-0.594170467817	0
9.457257345083	-0.753685223931	0
18.101369157139	-0.618560521812	0
18.336839281097	-0.861122419318	0
10.385948631267	-0.570640149046	0
9.5	0	0
13.411260455969	-0.342646276848	0
12.643108055516	-0.590179775368	0
13.137744715761	-0.195204172124	0
13	0	0
21.25	0	0
21.358341816502	-0.326561417551	0
21.5	0	0
13.816492716597	-0.40394453634	0
20.25	0	0
20.423452336785	-0.313445603959	0
20.5	0	0
17.789350393153	-0.390447709085	0
17.987794057246	-0.401472255242	0
17.881276545163	-0.206424156589	0
19.564465692234	-0.270867872644	0
19.290725118801	-0.49926248604	0
16.392319441256	-0.29915360323	0
19.443730892406	-0.923508713428	0
20.457987075478	-0.803203365193	0
20.167450719332	-0.505159975143	0
0.103762538371	-0.253013629949	0
0.267057015134	-0.483604909932	0
0.374713194419	-0.2320817565	0
13.25	0	0
17.415572543912	-0.230682214253	0
17.5	0	0
17.25	0	0
18.108153655084	-0.208141099276	0
18.25	0	0
18	0	0
15.75	0	0
15.544586046819	-0.246453491997	0
15.122708481244	-0.193620038745	0
15.25	0	0
15	0	0
19.75	0	0
24.149237782749	-0.319013340846	0
23.842766599446	-0.577371105011	0
24.183995039967	-0.73159476451	0
13.871646321742	-0.17394291424	0
23.862588150518	-0.245417872715	0
16.84024277193	-0.203626765466	0
16.704049384397	-0.435508179396	0
17.112673188265	-0.38804641709	0
24.75	0	0
24.832880292394	-0.290571430318	0
25	0	0
16.40158555625	-0.755912194683	0
16.850299990829	-0.757941865332	0
17.75	0	0
23.567455674596	-0.325197491724	0
16.25	0	0
16	0	0
22.645812614293	-0.197864648876	0
22.75	0	0
22.5	0	0
16.75	0	0
17	0	0
24	0	0
26.914424714815	-0.337869958787	0
26.621963281699	-0.624626679172	0
26.977877660759	-0.778408201088	0
26.622424322919	-0.264588309935	0
19.34462271879	-0.199329831305	0
19.25	0	0
19.118057075065	-0.225686869553	0
19.5	0	0
26.75	0	0
27	0	0
27.5	0	0
27.604422363523	-0.298869962794	0
27.75	0	0
17.650384190064	-0.227839036584	0
18.343198956448	-0.236734208617	0
18.5	0	0
24.25	0	0
20.143897114391	-0.233773711865	0
25.5	0	0
25.25	0	0
25.344389320279	-0.31693710653	0
21.059546193318	-0.24845941382	0
20	0	0
25.842927934822	-0.248287716678	0
25.75	0	0
25.613904645132	-0.216025146631	0
21	0	0
11.763551406169	-1.481607093928	0
30.981104050195	-0.5526690913	0
30.873880294509	-0.217692518774	0
30.706626759758	-0.34945139905	0
20.75	0	0
20.85240828135	-0.178025243856	0
23.75	0	0
20.66289882074	-0.189089155251	0
30.204950808504	-0.791758966623	0
30.715535843381	-1.149995259266	0
30.543724897762	-0.572259098027	0
30	0	0
30.180216671806	-0.343473673313	0
30.25	0	0
23.229584388362	-0.458653998547	0
29.5	0	0
29.623391954444	-0.322069028408	0
29.75	0	0
21.618913855927	-0.233585823579	0
21.75	0	0
29.348490380579	-0.521100538161	0
29.36294710412	-0.230601226356	0
22	0	0
22.25	0	0
28.25	0	0
28	0	0
28.129259193923	-0.314252106503	0
28.44374413871	-0.484576386004	0
28.100199615755	-0.812038297775	0
28.649230646972	-0.871769248311	0
28.618403654115	-0.227691192115	0
28.5	0	0
28.387848605749	-0.205892081491	0
29.054768525933	-0.708603081552	0
29.344906532636	-0.846887322836	0
26.327430876245	-0.35930637997	0
10.349120516034	-1.04150119828	0
10.894920134778	-1.514321070539	0
24.59640839418	-0.191760546865	0
12.75	0	0
24.5	0	0
13.102881121377	-0.411296235356	0
25.099388239946	-0.214879887129	0
25.97986022697	-0.52841375324	0
24.398993403151	-0.196312410538	0
17.860840746535	-0.577367743328	0
17.566481510048	-0.529340016102	0
26.5	0	0
16.637148248735	-0.188015807345	0
18.183918302467	-0.396443618316	0
27.159348252167	-0.205297590358	0
27.357530053515	-0.198815038154	0
27.25	0	0
15.060354649709	-1.112587998155	0
15.51532665618	-1.043792149387	0
15.178150912169	-0.713100616689	0
10.051363365948	-0.719159376333	0
14.661248691948	-0.27865166374	0
14.75	0	0
27.868836823455	-0.217301839861	0
31	0	0
30.75	0	0
-0.020273477909	-1.415389842481	0
1.054972770973	-1.487485199502	0
0.512583677021	-1.0438154777	0
0.75	0	0
2.361419414365	-0.794513604096	0
29.890297721653	-0.2433406165	0
30.473599299501	-0.238575611274	0
30.5	0	0
30.660802173874	-0.161931182737	0
28.783812899585	-0.467926883932	0
4.937022539393	-0.72440615077	0
6.696914540879	-0.380672503721	0
7.434272221796	-0.695675918868	0
15.339606453815	-0.166204802571	0
15.281953315711	-0.388999642276	0
11.893544445085	-0.335972898148	0
12	0	0
9.753796445798	-0.478866225926	0
7.720012958977	-0.638314519759	0
21.871398197179	-0.313006985103	0
21.615176662754	-0.521922347305	0
21.856785525528	-0.665128848631	0
20.792152536902	-0.448319093295	0
21.109577821412	-0.527879642114	0
21.360297691811	-0.734200004244	0
15.547854961707	-0.580173571081	0
24.496861814148	-0.467031445896	0
25.067351422649	-0.463427753535	0
24.81263825963	-0.684738154192	0
22.865620821195	-0.218348593093	0
23.443705587002	-0.773171720633	0
27.277617447467	-0.489224417775	0
27.863714790534	-0.471681393437	0
26.239117668995	-0.863279739365	0
29.896797054636	-0.547765129844	0
29.612773839625	-0.699757135752	0
29.867172666547	-0.87444432816	0
29.610354212963	-1.521444655905	0
29.59548165142	-1.071765512911	0
29.115129171034	-1.220660174798	0
31.345359428525	-0.458952144926	0
31.144859415042	-0.241304201582	0
15.919565295974	-0.746550096707	0
16.063006820294	-1.289595303187	0
16.5	0	0
14.900855313538	-0.178071167744	0
14.161016743654	-0.72559708689	0
19.011498044983	-0.834202892304	0
16.760433281999	-1.263698818643	0
17.280361389946	-0.931704507314	0
-0.627742252535	-0.296285438777	0
-1	0	0
-1	-0.5	0
0.625738545692	-0.228405936136	0
0.5	0	0
3.313957665883	-0.865581185485	0
3.619156095452	-0.800599314657	0
[...]
CELL_DATA 986
SCALARS 100.00_2.20 double 1
LOOKUP_TABLE default
5.5516408932351 7.4042989720229 7.2593352296103 6.5601094326567 4.6491782556767 7.6125588400768 9.5699900266712 6.2070593266317 8.410192125849 6.804017854298 7.8072227989326 5.8414253747191 9.5296529146028 11.981565680045 8.7317173298254 6.1470520765573 3.3925986554158 8.1927485752811 6.6205918210188 6.1196678330194 8.1763404500202 9.0905496563587 6.1731376609046 7.3922035367304 33.391269089692 7.656605319399 9.5379674771401 5.7295029612821 7.0105407635933 7.8662884274076 6.3555523236073 12.208346377387 6.8852795920562 13.877170080725 3.245909397195 9.3372059967284 16.862534453582 8.9810255982035 4.2916511812601 3.2975362683437 5.9546803692877 3.9893886770133 9.0613034751899 3.6073070901743 11.742075905922 9.8886353978949 5.524264606678 5.2911791952283 5.4944897414976 6.9721661897067 7.6899450533205 3.4202433978021 5.1271969530661 9.4627119829859 6.7794790758805 5.5761244708732 3.5302344019955 21.208481254729 6.5026183868646 3.4448516997478 5.9677119562721 8.6494936544917 12.455354316437 6.794192392594 24.382167920706 23.159783894381 6.5315399077257 7.2919873093823 8.6407597410561 11.306494269398 9.4472103726961 15.093929465267 16.948335590571 13.780474847996 8.8243703768577 7.2584941337948 16.7956698909 8.7458611470097 13.604508558117 14.054478685203 19.500018212657 4.1519097861181 10.038465843951 8.8865128652826 6.0876965909364 14.856293451163 10.411685776398 6.3119751315861 28.762154707929 22.462018148104 6.1895754472695 7.1395881012803 14.764770834847 13.742785264969 8.9028449124625 8.0679634708707 8.8965344184431 9.1175490247687 15.388509071028 8.6307801826193 20.187755386244 5.5186810264103 6.6770545604638 21.728358600225 4.6766056162522 3.4057172725331 9.0798503295702 6.9897759037594 7.2048114381547 9.3933081768492 5.6844408622972 8.9969125625805 8.5039777089098 4.3824987304803 8.8307215790976 8.3405564515887 7.1070899518297 6.4167540850096 8.3500822294505 6.848406194989 7.3367943762771 10.955883839562 8.5931737540355 6.3217083494613 7.0527067927364 11.132685095777 6.5936902418681 4.5066985995464 7.2334378125438 7.1884797714415 10.285902645954 6.9998038440776 26.237639944722 5.8790620954328 4.535884786232 18.728716557182 5.843974015651 18.925523429583 19.25575050417 7.9857542746566 7.1313305859615 6.8094823616191 7.7113386743514 16.866552933795 49.074153769346 28.499759256658 6.4547867127852 4.7871768640518 12.954986442305 6.1689922625382 6.2871938834838 6.3739591628576 6.2033624654747 5.6272054330825 19.977901353902 11.513511562885 11.754944272105 5.1357050541854 6.3343719968688 7.1088385068517 8.7134343163044 7.2317540554485 4.3983551006007 9.2373225902505 12.340104404624 4.9366955038669 4.1527725549341 7.4555734728815 17.555839454429 11.776800377374 18.804676611835 5.1338541146562 4.5891885294606 4.4161594013359 7.7098393343952 14.951949181961 10.917852124217 7.0312360466449 8.0318355226492 9.5806586105034 7.2710454241798 9.4673869781902 9.0067865989498 5.5954869473488 6.8851478427829 7.5016935863648 11.194216205161 7.4289132448764 7.4326548625299 5.8741558965368 6.5757153367461 4.8411169533066 8.641660775875 3.4941534790583 11.916037289446 7.177601134705 3.9566135029093 12.136378990495 10.270947065555 7.3342392326161 11.171518452222 8.1259106187659 4.6551654663816 6.5518077773106 8.3467839995228 5.4526966215274 6.0367292596151 14.538623544052 5.5309315873106 12.978676589675 7.5609187622962 13.139610076254 8.6917607930171 5.2760507750038 3.5685630220841 3.2786412661519 3.7423799079891 7.4393016631744 4.4714686916037 7.5644989039811 8.3966879000828 6.5064552901068 17.609512724449 7.1427247404275 15.66158246063 8.7525343975597 8.1232384787895 16.255272820232 7.919822158745 6.8615541603196 10.18011702369 4.4414082254223 6.2987369182803 6.826501138291 13.627719205179 7.3310362897689 7.7396371094705 6.7013336528116 9.4575908323375 8.259023451752 4.8503078762043 5.1362909523268 8.578807827002 10.36479657219 8.4569565671429 12.396527836758 3.2050037474928 8.9846816893619 10.490137054303 5.4272070950015 4.9213308840911 6.2737292191205 6.3254512199725 8.3176270139407 10.294985495174 4.0937112526266 6.634237821544 8.6392992490865 5.2809211782418 6.3499029903994 10.861364822918 16.199781040861 7.4211698938353 8.422572756296 5.2430365706825 12.846238311439 8.2161788615228 7.0562676041355 3.2646071781519 4.2679495670432 7.9578514673152 8.9486896219311 8.7341428430192 11.527868034447 16.503600811483 13.781819271549 6.1346082668443 7.8416486278876 7.6422928920689 5.8406090876203 7.100467512247 6.9653419018976 16.579738024757 11.932820306396 5.6149271358901 13.051593838841 7.6955519922623 10.780102981158 10.31497121859 9.5066638915402 8.3817777608646 6.8841834855787 6.249484018356 6.4287697989998 7.8945350504836 15.605494988823 6.3785113521483 11.59156659067 29.448061270186 9.2413180659116 4.3077963185065 9.7792654462338 8.3814156299819 8.906403910316 4.5383110231253 6.4148192222852 11.918937103898 8.0888088442023 7.5730847064703 9.0821126455292 8.671199304014 7.0617900368367 4.9507512122938 6.0166885903861 8.1342066386366 6.6264440327088 18.317574700881 6.6535139560417 5.7304263029779 7.7478831406528 9.7061713284076 10.765878224055 3.6239094994447 4.4562199031993 6.8487226284348 8.5404009556958 13.198004948996 6.0463958557044 5.0649931934336 4.004717153856 7.44639854178 6.1598948210279 7.8834292924179 10.427372015083 7.2652808098891 8.167493360214 8.1737872169939 14.867398633257 7.2901672726867 15.388187250756 3.414207250383 3.6724781695819 9.3154063142887 15.038802106657 13.259573061445 11.632080694656 9.3597617361096 13.355787097931 19.202225299748 3.9500312021519 7.2695764670387 6.4549334206785 11.143848296579 4.0419010160422 4.6722670194817 6.0431107952628 6.1729710436567 7.5547657511829 3.1333289367896 8.2556873656021 5.93293507233 3.8818171088552 7.4278799386223 7.8675040237939 6.837009910476 6.4788611835705 5.4610374433764 3.7022736103376 6.5502050036636 12.312002616997 7.7958089461047 5.3077220218688 4.975279479653 4.0381606242684 6.3963008280354 7.2283408099734 5.8094694333329 13.440718609329 10.208441553459 4.0676531102585 3.9271447812108 4.1321301327282 7.9927570311459 5.4914259668553 6.7956350500285 26.989827058951 9.204746963781 10.141416458853 5.9303331692933 14.779501897306 7.8935731911069 6.8644521087405 3.3265690980013 10.016481794973 7.1574477000948 6.5716180996701 4.3466568206771 8.8371412366584 9.3078338506131 8.2564148739617 11.220976628511 10.336972343534 8.1372930032975 4.5966408212507 3.9689382986886 20.982396964703 4.5361561008651 9.3928288284879 8.9990139241872 5.5525430937967 14.518662588664 6.3061337152882 6.802210864752 5.9297539576493 7.6553912175231 5.1686395188397 4.2375137680204 5.9783880352628 3.9122712706276 4.8437175704474 5.4355666919042 16.093887067249 9.4428010779678 5.1653708709824 6.494821596182 4.7142214145908 4.3382937781408 5.7285999065857 6.9762990211966 6.2813876124548 6.7512412941537 10.435758392668 9.2136013742222 7.0448342709275 7.7064700332159 9.0821078200545 4.2470285914689 6.0854875774272 4.0856503546939 5.9345115031158 3.8982272844545 6.1971986399079 11.242867776066 9.2528668658014 3.9516947276101 9.8768799966816 3.3412064138837 7.1807701487768 4.4970938610445 4.9952599766901 7.9736737092541 13.309444120289 9.6255480787253 6.7453800905932 4.9892913824642 3.3853299123138 4.8054185956068 8.7583798299711 7.6839469930709 8.6101819547754 7.3866973309003 9.9744368671479 7.7064580556893 5.5877515490489 3.9111319742534 3.4692471337293 5.104524112245 4.6406325508779 3.8045302849556 4.0824254038542 3.893873677661 7.2693644290724 5.8349244017342 3.5581234949162 3.3944065861925 13.557191416227 7.3821713675206 4.6185032072696 4.3629816142201 4.0714237068401 4.1995123549038 3.6677746558713 3.6955789769147 12.726217204872 8.2133573855752 5.8844445121227 5.6993146146421 13.064159229355 7.3398952407821 5.4517073957802 3.5985565152049 8.5044059327614 7.2495679612052 11.898365755118 3.8984495844515 4.2757102861655 4.1758682040655 3.2808902158778 5.702941906634 5.8475627551132 4.8399929197041 5.0543088725398 3.5626139181723 4.4170263486378 6.4624947214019 8.1816055591533 4.1490035220636 10.822542441405 8.4473473439595 3.2577975512243 9.2392491258678 10.338151055505 8.1496577043098 3.6941937339681 7.1500458415372 4.8446582285334 4.4429125908436 4.5610158789742 3.6369588877253 9.737552249747 9.9886136805677 3.5702128676257 6.7271012852823 4.5091150248578 4.1355411750025 4.4970867697877 3.3742874676419 9.9280335725728 8.0721711580953 6.8781873261878 4.9641742750975 7.5176430655671 6.545752168477 7.016448202274 4.7641793083698 7.2319588876279 9.9097804294827 8.5158491510257 4.4963298360235 3.8123049027649 4.8357293501851 5.1416009279385 6.5387669412061 11.135281277315 4.4836407840246 6.9252289425314 3.1480981780301 4.7241360402744 3.355266191825 3.7610949779708 6.1654474378768 4.3876113634485 2.6255084351953 5.1503961198733 6.1953222840961 6.2008389837914 4.8807063801918 5.6773260079538 5.0914125655702 4.8507233312537 4.3408003527464 4.5033270654374 6.4315808640823 4.87183120893 6.0055288475618 9.9777859985657 4.4942216109287 3.7899719063322 4.4750151917929 4.4887834308081 13.572298132554 3.5197034420023 9.4655459032888 6.0756364480643 7.886916053163 10.312150361477 4.586850231123 3.0343748310256 7.0314965626955 5.2866738142896 5.2386598416932 4.893701891179 14.851762912427 5.7350402181829 4.1064334469375 4.946376770352 11.78395646881 7.3224489107872 6.8626589099829 5.7518399350162 6.5350142177416 5.2407984756947 3.4630165437775 2.9906414490087 3.5063447117161 8.2179103218813 4.4644557107873 3.3368801690045 3.9125960093061 3.9502168897882 4.8667413064148 5.4707962803894 6.5273894737584 4.7786030725077 3.5947133735335 3.2602786201332 4.0867759935595 5.3401672911175 8.5405010006473 6.3391751275377 5.4104354610812 4.6647628852852 3.6993464941549 7.7506698469925 3.9467878988274 14.124391868695 6.165215660438 3.4501980907799 9.431886985908 6.5939042342262 4.0609093832581 7.2230028652849 5.9964750001365 4.038749815725 4.348616905649 3.6717655882361 6.2930935664735 3.477537067661 3.7786885361152 4.176647429269 3.4403109519943 4.1133162919158 3.5350801550373 8.6928408969022 3.2668337628567 7.5726454880791 3.7847524933616 3.9904366851299 3.1637351790946 5.2061914800115 3.6020238644158 4.1114676414151 5.8220394924209 3.0551427547589 3.3842100783213 4.3618933895287 8.1399365861726 6.6367143871341 5.9043992952854 3.4220502241518 3.6038963990116 3.9188264655332 6.4298784930693 5.7290024303411 6.4280996355265 5.262874408078 7.6069449299509 7.4811937416751 4.1382364586026 7.2889558086886 4.284819750349 7.183647276961 4.800864299156 6.6088319966253 7.5245062244449 5.5803540711793 6.5488310756883 6.223427888659 6.4242779588188 7.0178807667082 7.1797394095215 5.8629462039117 6.5720202712763 3.6121685910646 4.9618461791092 7.9414434220896 4.5216536222823 6.7287529835325 5.2124150230225 4.3888817631458 4.5364720359564 4.0195317867111 3.6838722490598 3.9045604912173 3.9373961353839 3.4346442012674 3.9509337373171 10.893313876849 5.5539537717098 7.7312392945132 8.5028988368466 3.9849117636901 3.5152277690139 3.6698988416185 3.7777476526487 4.1490884937717 4.4682376342854 4.2085840021577 4.2806639267815 5.0369450343649 4.6738942592559 4.9387247031667 4.6877952416617 5.1012276934472 5.2985439365043 4.610107842716 4.447433528886 6.2949635258196 6.1860982911467 3.955468455264 3.3960553845331 3.6680022677884 3.7978028851201 3.4566260203783 5.9480742832984 3.8624462476194 4.7693362742212 5.1177504080963 24.630953862899 20.427650685189 3.2101092413762 3.6641114672138 4.6707847932947 4.1570276716283 2.9621731098011 3.2772575713169 4.0775761194715 5.5875620371663 12.561618019401 4.2003931098957 6.0723765363466 3.7049370890641 3.9355545271737 10.226101707402 4.0392348158422 3.2797352515639 6.7616001068667 3.4059746411945 3.4057698140141 4.9350713277302 7.7069987608773 3.83665463692 3.3306355744154 3.405133162716 4.837725022095 4.7171907022255 3.5280899778612 3.4613655079926 3.6010624744724 3.7069396305301 6.8747123296277 3.3427569570668 4.4803615978554 3.4914378608382 4.3221746623116 3.2916134555313 3.5528505912913 9.3344293901332 3.2159250448256 4.7649999174457 3.4916822088913 3.2913718764559 4.0278939977076 3.1331140199641 3.4589887866291 3.4497588307655 3.663452071662 3.4568875731756 3.3035932670515 3.3258211479718 6.5817467093902 4.0184914679443 3.3459070515107 3.6224447605702 4.0392252846074 3.6892078974352 5.5364375961469 6.4493478190511 2.882973774362 4.8597854725789 4.4429861924057 4.3576795900714 4.8601551971513 3.9195651820007 3.4059426930455 3.7130157797404 4.2819386974336 4.227157838932 5.413080965062 3.1484515318433 3.5914271768233 3.3584742246975 3.7489922089536 4.5927949285239 4.3138116996659 3.699838109727 3.3437997399557 3.4641901013001 3.0908253246707 3.6618381689409 3.3874341578513 3.5775082049806 3.8721956892081 10.960513960796 3.5565919195286 3.8346033245825 3.7371821361632 13.796833424407 7.4963232627917 3.4476592995717 3.4333942383149 3.5369670416186 3.848212754773 4.0549092221575 30.56154004131 3.3909689193725 3.3611136619189 3.6141807044853 3.6209121774186 4.8729116150848 5.2821722244359 4.5682564379144 4.4369159183636 3.0536629225289 4.1649850182462 3.5782482231867 3.298033426105 3.1109078904949 3.4183554829487 3.1706565872623 3.5940933415225 4.9664096152874 3.5762249284663 3.4237861608333 3.1021678301733 3.1719849185298 3.0155004436548 3.3642714316156 3.5191458787647 3.3490100429934 3.6310535012171 4.7555634688881 4.3792347927848 3.3602707438744 3.443296313566 3.4719804100249 3.855920018941 3.5663508546287 3.350132841675 3.4637266061709 3.4506067140889 3.3607178719981 3.26253320913 3.25640168681 3.8741300615845 3.4920070011259 3.9993566471437 3.5758790602218 3.4113284460411 3.5353961777595 3.5098766152681 3.47402595028 3.5299157484609 3.2345964078675 3.1011285632475 3.3976118006328 3.282366593879 3.1264933899203 3.4331436028462 3.3642407090757 3.4531148835547 3.753215788887 3.528320097664 3.8804801103596 3.5982613230356 3.6256157324537 3.2379337170328 3.447973375365 3.5951366701154 3.3452295921701 3.6115885848304 3.4026676764673 3.9802534963824 4.3807046256345 3.5007056460182 3.5412159302775 3.7394739672396 3.5571905575529 3.475089983342 4.0480709907366 3.8234507659179 3.68208234514 3.7922728561847 3.9262637748331 3.5419553452656 4.2725827925179 4.3603587384506 4.0439830253166 3.7596247442788 3.760354676056 3.4280808566427 3.6489979282546 3.9623147289679 4.1247239762528 3.7699063489876 3.6030806185863 3.5778794777698 4.7829498076904 3.7805233690049 3.9538536680565 4.0619972828766 5.0480638718887 3.9831096558088 3.6082445813104 4.0760684467886 3.8652570517525 4.08199816873 3.5697819450856 3.8599833953074 3.8695447439407 4.0685356223157 5.0352103797835 3.8031827617007 5.0828301918678 4.3272628481377 3.9258407486057 3.7795876703708 3.8335238652225 3.9143029866228 4.1036187211159 4.2333937144563 3.809265722945 3.9019224478596 3.8217511927085 3.7289242452261 3.8945001287847 5.0598071435632 4.1712069446974 4.1541621983448 3.6864161372354 3.8977429702371 4.1620922364291 3.9256016711257 4.1392486508436 3.969214959313 3.9733515703846 3.9290612047209 4.0164891440243 4.0053851755445 4.8825002269118 4.0636273627922 4.0022982771734 4.0080953122583 4.3062430648488 4.4385573112921 4.3707346511494 4.6444184508534 4.7713864976021 4.5527448134721 4.3838843300851 4.2726856446465 4.963276503518 4.818937390555 4.8957300355758 4.6814628295747 4.8436820913123 5.037646534767 4.7155685198425 4.5639564525792 4.0893420979194 3.8238054464897 4.172650561891 4.1907281491807 4.0610519071357 4.09181523543 4.1835197831659 4.401280500127 4.2516164452046 4.270728353489 4.3472060533754 4.2656362586989 4.2519989864279 4.3030634177294 4.2266317403899 4.3005086772829 4.3075675421832 
SCALARS 50.00_1.00 double 1
LOOKUP_TABLE default