# vtk DataFile Version 3.0
d-2__ created by libgimli-v1.0.12
ASCII
DATASET UNSTRUCTURED_GRID
POINTS 1303 double
5.625	0	0
5.511811217919	-0.146388704457	0
5.676386535709	-0.13519637448	0
0.25	0	0
0.175228502521	-0.179050409113	0
0.326009290428	-0.144330725415	0
0.375	0	0
0.990207725992	-0.114957291708	0
0.841075314552	-0.137634199948	0
0.926498288371	-0.349340723189	0
-0.001071200562	-0.386156929004	0
-0.003317641763	-0.130454088023	0
-0.192720422374	-0.216308252768	0
1.25	0	0
1.175215748534	-0.200562384647	0
1.341115762259	-0.128605193971	0
1.375	0	0
2.25	0	0
2.168494514827	-0.19848886597	0
2.338304607341	-0.128945294536	0
2.375	0	0
1.911268305082	-0.334701951691	0
1.986191885908	-0.110806668109	0
1.838390258011	-0.128853462534	0
1.75	0	0
1.670105949089	-0.197137117999	0
2.986685504441	-0.10889534818	0
2.838723720416	-0.127406828384	0
2.912854264006	-0.329775839393	0
0.75	0	0
0.664572693147	-0.222613872306	0
3.25	0	0
3.168798596028	-0.193682232199	0
3.337828500197	-0.125181208794	0
2.875	0	0
2.75	0	0
4.25	0	0
4.161099470995	-0.193412132741	0
4.332718836325	-0.127723897736	0
3.83511440706	-0.12403687807	0
3.875	0	0
3.75	0	0
3.901908238995	-0.321557035295	0
3.983050435256	-0.106770030737	0
3.665527023987	-0.190866765849	0
5.25	0	0
5.164693411436	-0.21656556845	0
5.338419985376	-0.147288917438	0
4.834321952324	-0.135810575609	0
4.875	0	0
4.75	0	0
6.25	0	0
6.178399669611	-0.137425451145	0
6.356205370496	-0.193853696818	0
5.817814980918	-0.161175429964	0
5.875	0	0
5.75	0	0
6.611939839541	-0.314381537706	0
6.522886280605	-0.104721203126	0
6.75	0	0
6.669178832877	-0.119404962711	0
6.836073690852	-0.177498311423	0
5.39059629209	-0.37339102075	0
4.660917359886	-0.204007052252	0
4.902096977384	-0.356327271651	0
14.897042426984	-0.319128540459	0
14.98121339776	-0.105010975498	0
14.832720105416	-0.123004000492	0
2.669265824618	-0.196872625129	0
7.656019919505	-0.144451020927	0
7.75	0	0
7.625	0	0
6.625	0	0
8.75	0	0
8.672937461928	-0.164309120831	0
8.834289374889	-0.109279841483	0
8.206809119751	-0.294811800109	0
8.187056112549	-0.110869448227	0
8.024316200302	-0.129362764133	0
7.157390904024	-0.111206354394	0
7.25	0	0
7.125	0	0
8.25	0	0
8.125	0	0
9.75	0	0
9.651145885459	-0.185384966231	0
9.827054067621	-0.122428024454	0
9.381816956327	-0.305807769915	0
9.476753337472	-0.101567493772	0
9.327490061855	-0.116748040282	0
10.75	0	0
10.655660803951	-0.196164841752	0
10.830485405183	-0.127989131147	0
10.386748323888	-0.329675548046	0
10.478464938155	-0.108955040137	0
10.328560245085	-0.126395562242	0
9.25	0	0
9.375	0	0
10.25	0	0
10.15270392044	-0.192469144253	0
8.328856990144	-0.128933011689	0
8.375	0	0
9.153857570119	-0.175508527296	0
11.75	0	0
11.660624577581	-0.201812344528	0
11.833823570609	-0.131890823957	0
11.395399221028	-0.337817920558	0
11.481219500696	-0.111845889235	0
11.331881500183	-0.129806070652	0
12.75	0	0
12.669299873111	-0.199190799603	0
12.839534650452	-0.128328673855	0
12.40897914742	-0.340185307353	0
12.485654611126	-0.112072117633	0
12.336727606385	-0.131188239877	0
11.875	0	0
12.25	0	0
12.164627546098	-0.202605127067	0
13.75	0	0
13.669268468008	-0.186168180444	0
13.837322273199	-0.120178339978	0
13.416957459915	-0.319650485848	0
13.487510959619	-0.105281058988	0
13.34010202956	-0.123833443479	0
14.75	0	0
14.66080663422	-0.189613659871	0
14.399926333663	-0.319306441484	0
14.4823067449	-0.105599641009	0
14.334114343934	-0.12250571155	0
14.875	0	0
15.25	0	0
15.158227025815	-0.185762723401	0
15.330441202311	-0.11956675178	0
13.875	0	0
14.25	0	0
14.163960939829	-0.186365139356	0
12.875	0	0
13.25	0	0
13.171786689458	-0.193064330135	0
10.875	0	0
11.25	0	0
11.158129238503	-0.198418008741	0
7.31587636932	-0.171642077952	0
15.3902841013	-0.308450173235	0
15.478958243586	-0.102394874489	0
-0.125	0	0
0.125	0	0
0	0	0
-1	0	0
-0.706889652808	-0.331752981492	0
-0.5	0	0
1.125	0	0
1	0	0
1.625	0	0
2.125	0	0
2	0	0
1.5	0	0
1.488007132967	-0.109900770852	0
0.5	0	0
0.474245721096	-0.130043839003	0
0.625	0	0
3.125	0	0
3	0	0
3.625	0	0
4.125	0	0
4	0	0
3.5	0	0
3.485533411273	-0.107014956798	0
5.67736414417	-0.368119689468	0
5.125	0	0
5	0	0
4.98353533542	-0.118243061674	0
6.125	0	0
6	0	0
6.009467825362	-0.139471566496	0
6.5	0	0
4.625	0	0
5.5	0	0
4.5	0	0
4.481603306259	-0.111052305129	0
2.5	0	0
2.486482293556	-0.110456056597	0
2.625	0	0
7.828740664136	-0.157959666613	0
7.5	0	0
7.497789303332	-0.098817221798	0
8.625	0	0
8.5	0	0
8.493725508365	-0.094448160765	0
8	0	0
10.625	0	0
9.625	0	0
9.5	0	0
9.125	0	0
10.5	0	0
10	0	0
9.976983002093	-0.106037154081	0
10.125	0	0
9	0	0
8.980258705317	-0.095443922293	0
12.625	0	0
11.625	0	0
11.5	0	0
13.625	0	0
12.5	0	0
12	0	0
11.983083448534	-0.113269018621	0
12.125	0	0
15.125	0	0
13.5	0	0
13.125	0	0
14.625	0	0
14.5	0	0
15	0	0
11.125	0	0
14	0	0
13.984735949845	-0.103165953766	0
14.125	0	0
13	0	0
12.987740386932	-0.109238757727	0
11	0	0
10.980033547654	-0.110118532971	0
7	0	0
7.012790729926	-0.096165366155	0
15.625	0	0
15.653391866104	-0.184257106926	0
15.75	0	0
16.25	0	0
16.151956269841	-0.190746813766	0
16.328162175541	-0.125534698515	0
15.827345422636	-0.12109528269	0
15.881623705918	-0.315197408181	0
15.9768075603	-0.104841845177	0
17.25	0	0
17.155473725888	-0.187015736188	0
17.328334720487	-0.12053442359	0
17.375	0	0
16.97978281674	-0.105790715925	0
16.830585534618	-0.124270763258	0
16.892220832712	-0.321708894118	0
16.75	0	0
16.655725821363	-0.19281499559	0
18.25	0	0
18.144056513649	-0.199584109463	0
18.322695877645	-0.133173012767	0
18.375	0	0
19.25	0	0
19.156955168382	-0.212194778097	0
19.332395147696	-0.137501625504	0
19.375	0	0
18.978107771567	-0.118463258117	0
18.827251646435	-0.137822523984	0
18.884674261801	-0.359498065923	0
18.75	0	0
18.648603260315	-0.210400354993	0
17.973004229039	-0.108213471414	0
17.823362138939	-0.124125311933	0
17.87020700187	-0.324156104502	0
17.75	0	0
17.64837652944	-0.187413016584	0
20.25	0	0
20.167288289523	-0.206556633625	0
20.33799343326	-0.133667464393	0
20.375	0	0
21.25	0	0
21.172020853715	-0.201327641466	0
21.340729826518	-0.130206344264	0
20.875	0	0
20.75	0	0
20.839555732676	-0.132066213667	0
20.987710400762	-0.112937783384	0
20.915843633601	-0.342386775443	0
20.669904108595	-0.203936882105	0
22.25	0	0
22.168893714495	-0.194483818359	0
22.337089427477	-0.126591453251	0
21.875	0	0
21.75	0	0
21.840184239699	-0.127666317168	0
23.25	0	0
23.162361450448	-0.215073727418	0
23.335945395372	-0.148199257458	0
22.875	0	0
22.75	0	0
22.83504078106	-0.133126573368	0
27.412614995451	-0.337768305098	0
27.406417478875	-0.760610856776	0
27.663031754041	-0.476449210851	0
23.674319496044	-0.139602731619	0
23.75	0	0
23.625	0	0
22.902876337082	-0.348446434986	0
22.664415839639	-0.19979598046	0
21.987454968006	-0.109075483352	0
21.916658702332	-0.330379709848	0
21.67241042914	-0.19774510361	0
19.984830323221	-0.115851903278	0
19.835879034474	-0.135573032779	0
19.906686139011	-0.351521653308	0
19.75	0	0
19.663378765328	-0.209646647928	0
24.75	0	0
24.672305039303	-0.121865624882	0
24.84054616259	-0.178479133746	0
24.25	0	0
24.125	0	0
24.179559510218	-0.145425217914	0
25.656694723316	-0.141492417978	0
25.75	0	0
25.625	0	0
25.25	0	0
25.125	0	0
25.159224348757	-0.109007087058	0
22.647257188685	-0.476376729768	0
22.872248033711	-0.780455516934	0
25.317652966423	-0.167196322239	0
31.908525182248	-0.237434634112	0
32.248547795208	-0.367887731521	0
32.025	0	0
26.398062594932	-0.327144710524	0
26.335089901602	-0.124890632532	0
26.169730315141	-0.188549564961	0
26.75	0	0
26.662500836065	-0.197477656933	0
26.835401004001	-0.129534360312	0
26.375	0	0
26.25	0	0
27.486869476066	-0.111474770432	0
27.338367230812	-0.130187170762	0
23.816158307302	-0.168335740772	0
23.875	0	0
24.625	0	0
27.75	0	0
27.67023663024	-0.198727549038	0
27.839431305592	-0.128541986375	0
27.375	0	0
27.25	0	0
28.75	0	0
28.666013303123	-0.192953151514	0
28.835335299513	-0.125393524551	0
28.875	0	0
28.41074998604	-0.32692743598	0
28.485854239984	-0.108071323096	0
28.338261561589	-0.126341817439	0
28.25	0	0
28.169650699531	-0.195402875109	0
29.75	0	0
29.656991685033	-0.201213204108	0
29.830700495316	-0.13323291855	0
29.875	0	0
30.75	0	0
30.665605116896	-0.213760177502	0
30.837855425721	-0.139272404211	0
30.875	0	0
30.987248292653	-0.119871959545	0
30.911614165903	-0.362389547989	0
31.25	0	0
31.174363802618	-0.217041176186	0
31.346460135447	-0.143418487957	0
30.400599561582	-0.360265197586	0
30.483280501431	-0.118794220148	0
30.3336351656	-0.137924489201	0
30.25	0	0
30.159375273254	-0.21004086356	0
29.392934647931	-0.331414044449	0
29.48031118177	-0.110263057575	0
29.331777210358	-0.127344913482	0
29.25	0	0
29.160548153072	-0.194064979946	0
27.167334579456	-0.200440763045	0
24.359650796728	-0.20304719459	0
-0.25	0	0
-0.404335947278	-0.221464959739	0
16.125	0	0
16	0	0
17.125	0	0
17	0	0
16.5	0	0
16.478267427857	-0.108008273171	0
16.625	0	0
18.125	0	0
18	0	0
19.125	0	0
19	0	0
18.5	0	0
18.473681471998	-0.115768873419	0
18.625	0	0
17.5	0	0
17.47687846862	-0.103462148239	0
17.625	0	0
20.125	0	0
20	0	0
21.125	0	0
21	0	0
20.5	0	0
20.486446843971	-0.114298370976	0
20.625	0	0
22.125	0	0
22	0	0
23.125	0	0
23	0	0
22.983281399654	-0.116385827149	0
23.5	0	0
23.509214189908	-0.149359691049	0
22.625	0	0
22.5	0	0
22.48467632496	-0.1093719097	0
21.5	0	0
21.488472844532	-0.111208801785	0
21.625	0	0
19.5	0	0
19.482219828947	-0.117572233456	0
19.625	0	0
24.5	0	0
24.525433875838	-0.108080714825	0
25.824234283709	-0.149177038136	0
25.5	0	0
25.498573523516	-0.096586408813	0
25	0	0
25.014769107289	-0.095147895568	0
21.919931345447	-0.741308582321	0
22.160361550711	-0.463896476278	0
26.625	0	0
26.5	0	0
26.482631880244	-0.108512805864	0
27.625	0	0
27.5	0	0
27	0	0
26.984612185119	-0.111680714924	0
27.125	0	0
26.125	0	0
26	0	0
25.990349817319	-0.10847866492	0
28.125	0	0
28.625	0	0
28.5	0	0
30.625	0	0
29.625	0	0
29.5	0	0
29	0	0
28.983089608831	-0.107750428826	0
29.125	0	0
30.125	0	0
30.5	0	0
31.63125	0	0
31.5	0	0
31.494696987447	-0.123712578064	0
23.671261205816	-0.380102168636	0
31	0	0
31.125	0	0
30	0	0
29.980228243528	-0.115525062547	0
28	0	0
[...]
CELL_DATA 2263
SCALARS 1000.00_2.16 double 1
LOOKUP_TABLE default
8.3201258145219 6.6586665712912 6.7691303631778 7.7349853440568 6.2667768635532 8.1236732593593 8.245146628653 8.9984554809208 8.97143437687 9.0544988302471 9.0120604939219 8.2992193572066 7.5534667088769 7.8382235600664 8.5178340376545 9.0188161039465 7.4387061671405 7.6299956672538 7.352631734074 8.5124767059349 8.8739399590168 7.9762017429122 8.0971319473834 7.543448179638 7.1708285547302 8.499377460833 8.1977805364257 8.6299544885643 8.7934100178519 8.9195887333454 8.6126934384673 9.3376352123976 7.0938707833905 9.070203927417 9.327269282222 10.123065595503 9.1986420581685 10.478097212056 8.7561586330165 10.281281668496 9.8231431609222 8.5734374914934 9.606861964183 9.3034755626368 8.6637139013389 9.078654341752 9.1088951818505 7.9684125583004 10.044984397865 9.0047008584235 11.763488937515 9.5794912873482 9.3683489367366 9.2881197197016 9.6878122868036 9.0808219457745 8.7048176224456 9.5954867407443 9.6575633444133 8.0950092528719 8.8218589015317 10.326319246633 8.9698110020823 10.260361834156 8.5620111117153 6.2411337055557 6.3615498396307 5.7913117570373 7.9936870900016 7.8835811171107 8.9520923383346 9.2254256381859 8.7537099205369 9.0835604113679 7.1502612241544 6.5344851392301 8.0267533055761 8.3243296292572 7.310557399956 8.2411708715689 7.4482635075129 8.8461705671503 8.2208821857507 8.7283953223198 8.1503774894841 8.2491722181398 7.298255150286 8.7780709142479 8.4646289251218 8.3139576695983 8.9858160339795 8.5127606908451 9.0427702576874 7.4093195776393 9.3454274924836 9.7449428084076 9.2476120845546 9.5343730645114 9.3442605087414 9.224888906425 10.296037882645 9.5986302080681 8.8496937604629 10.213729341791 9.8965291790696 9.5366422455974 9.088781786918 10.407629936789 7.8959511506601 9.3752960659179 9.547670199225 8.905118056025 10.749907208818 11.998558203355 8.9194104110214 9.560433320653 8.5771499987773 9.9343623298036 9.0992831033471 9.1160750517267 9.9593391416525 9.7826833281993 8.4242364120461 9.6325452059044 9.7566171839768 9.249712405332 9.1711754609932 8.805893744428 10.066732722674 9.4569123807791 9.8295783859358 8.92818173149 8.8426953906882 10.254954252983 10.543574209879 7.6098869377242 7.5653904627482 9.6559137286434 9.8512645206129 8.9935424125564 8.9045703938824 8.8325206628518 9.5983846203757 10.534017760866 10.51628521167 7.9635904764475 9.9629383817253 9.1908527119083 10.11120946575 9.2807565523792 9.016668452358 8.6739758137641 8.8854817436766 6.7562257536951 8.250805448025 8.7760490288058 8.8947704031203 8.969350725871 8.8611235938661 9.7886415881281 9.3265523299376 9.0001253507533 7.5308582467504 9.5041931029118 8.8875619445409 7.6717924304002 8.8918913472124 6.5067340386912 8.0956408757309 7.4693832922543 8.1880214298974 7.3581349661564 8.1253223305498 8.9100101978777 8.2903583301985 8.0902797325537 7.2665633717624 9.1298872482513 9.174197310684 8.6861344512764 8.5461791567324 8.3704756222581 8.3208366916643 7.7237754931135 7.7416986382653 7.6118065112156 7.0666943965391 7.6231952473985 7.6222561952723 8.5992977663213 8.7604460281614 7.2339387926704 7.5612789880061 6.0444543122185 9.6419427184894 9.2843172603016 9.7791188657254 10.353014773053 10.243327769295 10.534351722489 8.4053349745122 9.5020754482586 9.3866796534867 8.1398212922694 7.7790090615506 9.8132551256825 9.0459900753272 9.9417660467017 10.461097382266 8.0387514037832 8.7069174900426 10.789552561128 10.65658477394 9.2658372661372 9.2682093275972 8.171519937992 9.018811945758 8.4960013164378 8.9743388379523 9.2699646101217 8.8144781796517 8.4729011687484 10.501133012027 9.6338853636191 8.6828059267058 9.2673129514958 8.5578174656957 9.3606001054367 9.5142575458256 9.0932212492177 7.7063475184051 7.6243238184332 7.9485041109209 7.9954146548596 7.7104965022676 7.3480666966881 8.4960593689928 8.9316608224914 8.4790438638695 9.0480161920487 7.7369523609523 8.7082873704174 9.0991503158478 8.522167896709 7.6698758811378 7.7343171512788 7.2492065638143 7.0950533648415 8.0975457726559 7.4871520539429 8.8712614417802 7.9283027155976 7.1604689529395 8.4199834253057 9.1443341510095 7.7600693947161 8.7500699796285 7.0372824645446 9.3053633823718 6.4376796396701 7.7132922143509 7.0312135057618 7.9215875149783 8.5803541348498 9.1560754915439 8.9999812248869 8.8557904947007 9.2197074749357 7.2648646145297 7.8905017380069 8.1615422427839 7.5869082317002 8.5084968533728 9.2772892843523 7.3438773068138 7.8559888512577 8.5994172904478 8.6030921582612 8.1551427595675 7.5770119795688 7.3250687583698 8.269660087534 8.3253845372906 8.166506208185 8.813634552153 8.9266931248031 8.9324175856641 8.3707763672032 9.5330601437543 9.4414888025394 8.9418901135056 9.3879310472852 9.5165297609599 9.971821891679 10.44786870302 10.248510832146 10.171005554675 9.6053539592722 10.089668348315 9.0216271605483 8.8862212982311 9.3816548523036 9.5682683618242 8.2099599119225 8.4625362441647 11.276332559778 10.419760882734 9.6091704693006 9.8243098446878 9.8555034487617 8.9204365820668 9.0068234526835 8.8274514024056 9.9382290680455 9.6762593899709 8.5099529710705 9.4562649143883 9.4409606738487 9.0651501886455 9.533815496342 10.265395193875 5.9561069716035 9.5805339148306 10.352604402737 9.3332929728324 10.165095147572 9.404045977886 9.2142477808947 10.443985641734 10.349182882627 8.0342862415822 7.7957162374963 9.3708401305999 9.9874315572319 8.3669047543127 9.4882737338222 9.962528933922 8.8500366831887 10.612407360539 10.604061468358 8.3012658966741 8.2585654492092 10.616160469612 9.3082566403283 9.2381062346734 9.41980974398 8.9184175974268 8.590640176729 8.1316191177244 7.9756905059806 9.1090877556716 8.9832336086147 8.5956282716622 9.2681446698723 9.4371214232435 9.9626406226208 9.5375432458703 9.2961483654989 9.0859819531901 9.0771959243702 8.5342767466367 9.2731452862586 7.7846447303497 7.3546457108324 8.6998840689965 8.0389612470897 7.8335467219056 8.4121018005355 9.0828294741571 9.1844541841803 8.4206251152371 8.9097488948008 8.6009171561285 8.1297217162417 7.7281108025503 7.6691803524049 7.3349531329009 6.9999577838292 7.769544084707 7.7038032001352 8.9653780560538 8.7116547171459 7.2911444255866 7.4992934224332 8.1613630008631 8.1774292821961 6.7809585159239 6.1431586811291 6.938063499679 6.3305388132053 7.0382425832457 7.7317016912889 7.6879487928809 8.5816768562089 9.087768661348 7.76074070347 7.8191794275248 8.4186320362191 7.058239065422 6.8762669424168 7.5549918499514 9.2290508476888 7.6831169121519 8.5481916821542 8.0852157994998 7.5354519600474 8.3501349758705 8.0832845860971 8.444087939339 7.2009181943097 8.5970357417956 9.428445695009 8.7396471101617 6.0783220699404 7.937718005765 8.901170840217 9.0232448716037 8.8945499644017 9.5275096168108 8.9445325473857 9.5359843452445 10.667448527095 8.9836225583204 9.1994644918255 8.6769685513282 9.4018923057253 9.7305108498922 8.6987830531455 9.1132215421955 9.9985516411309 9.3935669169409 9.0925786995141 8.8676915716838 8.143295362156 11.857212095594 9.4106344078747 9.1898041501159 9.2654551502426 9.0007873013453 9.0831555028155 9.5637397784668 8.6484048015699 9.6885719142555 10.534583658899 9.5750837043726 9.8184189071452 8.865678175165 8.3728520973423 9.9300689937253 10.051649116957 7.3558893943953 9.2060547568128 8.2116840309939 9.645432485106 8.7563022126395 10.068539905981 10.602918021272 7.6765479914238 9.4101927559486 9.862447258371 9.430933743425 8.4855507893447 9.169993672332 9.4065336250311 8.2589830180424 7.6676195409947 9.8209731388417 9.2299797543897 9.3884533521726 7.9741301893891 7.9310138423576 9.3558569106503 10.076913135432 10.289156883221 8.4828075537694 8.6407419060614 9.0840718602692 8.126911795757 8.8484977362525 9.1786399064678 8.9848721884344 9.2150263694557 8.5712346480187 8.1279488991361 9.0193763616691 9.6874520774548 8.7570458478994 9.2856976647828 7.6698736606935 7.4000102769544 8.4445243310399 7.4365250104427 8.4028529007178 8.2200847209221 8.3351472322614 9.0179716365568 7.2885952796531 8.3548013354831 8.6458648979319 7.9759650923955 7.5100963907552 8.1684291667938 8.7302648693484 7.3849300848837 7.6261573518759 6.9881628014077 7.618035880898 6.6502108807827 8.4703393155973 8.0588342206435 8.7762017942956 9.0004996958999 8.0172490599383 7.3420209269228 8.4200843651387 7.6290955704177 5.8938812908324 5.8801291287506 7.1892247204153 6.7671989424287 6.6976604745873 6.8859087011788 8.1942532841268 8.3896960468371 8.8588937527449 8.9695397840581 8.9192996390728 9.1419754323644 7.5464312262024 7.7822789628118 7.5981610525006 7.6668724850907 8.6990380211171 9.2420227805146 7.391788779076 7.5873081341213 7.0220815042336 8.5977721327623 8.6006649705408 7.87468914425 6.9202000435054 7.3118392096612 7.9077644948068 8.1277700053721 8.144207434231 8.9063382917063 8.3652694297681 8.4296295372173 9.7221218355796 9.5160153966776 9.2781274866429 8.941239801441 7.7502730022912 9.4397466943002 9.8563326459244 10.536483144957 10.01568480503 10.281002696966 9.5695323307117 9.8856047144948 8.6414597835544 8.6372492551606 9.0193825866624 9.1344062096574 8.1580445547199 8.2955798673841 10.283106849558 11.17856341271 9.6897078953682 9.7126637141854 9.0304123993227 8.959844966212 8.4521698867007 8.6348681109036 9.6594896375024 9.6023122142285 9.0750582243517 9.2427803048271 9.0627071293472 8.9536092068513 8.6697198393877 10.535837186017 9.6218119365277 10.437975053609 9.5267044070226 9.8836567714231 9.1308465295708 8.991729106571 10.243825490907 10.528601269432 7.5732658086856 7.6286039821744 9.4511644875888 9.9392153943649 8.6581703020535 9.2904336218008 9.0627669800316 9.1373858970084 10.176861973368 10.501582869782 7.9827495016273 8.0827278762166 9.4008145144418 9.648890421828 9.0918469430721 9.3866683624333 8.4002878127347 8.6030817459699 6.709442347838 8.057199364431 8.4812533067085 8.9214578165458 8.7268731291967 9.1162754332564 9.4899210946048 9.6355486492092 7.1851462737322 9.2077884665314 8.6675532141842 9.1639631293947 7.5095005437454 8.928060490045 7.8015081573016 7.3670926843772 7.8445731401907 8.1103230443841 7.9610606192587 8.2914202462488 8.9130322882024 9.1665627180764 8.4770830886367 8.7459222052764 8.1155589874342 8.223256651528 7.6063032861233 7.7202564833448 7.0763360423881 6.9931581025803 7.5724646426156 7.6541503732017 8.5832219804583 8.7043769359117 7.210171351161 7.3454543276152 7.3424401909077 7.6707519884401 5.9978839633461 8.5986404646245 7.6658320745827 8.7916236036614 8.5271858200065 7.3546883970427 8.0152146528022 8.3858261584175 7.0712443766957 7.0139857555741 8.0972464788967 8.7096253112162 7.8937719365628 7.2726327010814 7.4021542964538 7.0915142191084 9.2645634607396 9.1285138775846 8.4703324156287 9.531333088132 8.1436101338694 10.405150098763 7.6496958943731 9.2911465536384 9.3380575142118 9.7333006717222 7.9065529583392 8.2426547868143 8.0315003255824 9.0415087234416 9.4492907532741 9.6016377862631 7.5696778005042 9.1115772193696 8.5044255709904 9.7094433974704 9.4377418659515 9.7585279240422 8.8557060113116 8.9769008800351 7.6447502406532 7.5111453272087 7.8873387954751 8.5299539514439 8.0403357166636 9.9019359706008 7.7623468730982 8.8101119454957 9.0097476825584 8.7791466216432 8.0889704198126 8.2917356292437 8.0932940795646 8.8512878586157 8.8044786088169 9.5633455076174 7.7544306416944 8.5526996535667 8.6342751708433 9.1462343706749 8.3998308845031 8.967112352058 7.5792360664274 9.3098194357936 7.8649424618636 9.4881792678631 9.1243031900362 7.8646256188922 8.3972085711438 9.5606965854127 7.0234771978366 9.524989449996 8.6516371258545 10.122935062152 7.2928966400164 7.5930706171752 8.5384168627541 8.9047033743234 8.3468938558892 8.2720746416557 7.7870280696143 9.060436455383 7.7555039363233 9.0276846594124 9.1176513800979 7.2151192220902 8.1952924063806 5.3955078794789 7.2589013590292 6.9213083786109 6.244541501776 7.5799201336653 6.8572561235886 7.9775707561287 7.9551701308435 9.0036275577339 6.413012290079 8.8546500892775 9.0595871214177 7.3228369612093 8.7331223357552 8.5379691854566 8.9268662174565 8.2097574346476 8.826269404728 8.2130620323842 6.9556944331266 8.8635156576318 8.4049010900985 7.8238676485327 7.4282970095046 7.882684451733 7.3290841905688 7.4546538929058 7.0379485392253 6.996262380386 6.6753014329373 6.495755971631 7.0845451697411 7.4825829755716 7.8099081092583 8.3478641984631 7.9312674725459 8.9119487492363 7.0405527699586 7.3415520805275 5.7420604279062 6.0668059581273 7.333757873222 6.3705957015358 6.2686028868487 7.519236197511 6.1030255685452 6.4621124725204 6.7713907144265 7.0799513178838 6.1296043743043 6.6701053989067 6.3563037036002 8.4791392351017 6.456123471905 7.864907612732 8.0323071121796 7.1860802355643 7.2796533986749 6.2237529804913 7.1771093062939 7.1080807306416 9.25402360238 6.901930672771 6.804129576523 7.7009209802857 7.7424909465365 8.7671810591828 7.318059449612 7.3647229399884 9.2614782591237 5.4736711815733 8.4583467112417 6.8587103599749 8.1491208441699 7.4326098861756 7.2337817941608 7.4882812532797 7.7879187426759 7.1808112392721 8.4052460307055 7.4949259852187 6.7064592787942 9.0234638646193 8.1737606719989 8.6563640245775 8.551146886918 9.007043879659 7.8274685781436 9.0385714614914 8.0090248012439 8.897629359613 7.7965202444421 8.6047861146578 7.6203344990789 8.8523262040108 8.5274716797923 9.4721562869238 7.8581875563287 9.4627314841885 9.035769760765 8.7478326071967 8.5129029526195 7.1462490417922 8.3789466674099 8.9695045787772 8.2951477706563 7.930534591223 7.1410673722417 5.2032020675367 7.6747339888367 6.5485548792597 8.0840011753552 7.2284120315097 8.9561909807996 7.6159636578236 8.8231308380325 9.6299281271115 7.4675428657503 8.0179920515441 8.6226462065888 7.8100273052969 8.4373388546601 7.4597760917171 7.5314615435867 8.7133664154162 7.8315771841673 8.0921081271196 6.6167618118337 8.8097091331939 7.8407902385298 9.4049526180731 7.5095871251317 7.8661851480658 7.8557297209099 8.5269416373722 7.6866276794545 7.3560167143902 8.6902884197054 8.1018100733799 6.9178752438515 5.814378744619 7.5730537329577 9.0349946971203 8.3392163813832 7.1032483659446 7.2770120162581 7.4578105623184 9.3160012741969 8.5490057998695 5.5140523730781 7.8361965950191 7.5436807200837 5.6778839822865 7.1955186620601 7.9873410258456 6.0747212434675 6.9607104781106 7.6784096431248 7.3785146930303 6.624641945785 7.4136794786877 7.0781293387712 7.8638503803456 7.2153764562035 8.2717518732869 7.6807907257632 7.2486493687697 6.8099083305555 7.2390805096851 8.7464335315307 8.9697448048395 7.2312455263731 6.9067371803769 6.5626097333091 8.0719497824126 5.6369327387696 7.8294178360138 8.035540154252 6.5714123773612 6.1133829757465 6.6001925517081 5.4067494621569 5.5228563015889 8.3387175451017 6.5310682663057 8.6539937264132 6.9414935584758 6.3899496695823 6.5267978775692 8.159066477194 7.2355788815107 7.7346289408393 8.6599129915481 7.4814564979078 6.6555491050906 8.1031839805794 7.1488261178157 5.6502778490606 6.1023415929673 6.4961062809338 7.7322659362311 5.8938114421342 8.112335903894 8.1873877563789 7.559581993902 8.0319941811164 8.7994866424329 7.6422063311256 5.7531917885994 7.4277605113015 7.8721560198935 5.2847637418474 8.6278205470834 7.2119102672587 6.9750013807419 8.7564002027632 6.0295816436645 8.3723631364133 5.6188253002164 7.9624319817389 6.3548115746527 7.7324590361514 5.8502384927724 7.4165342084822 5.6225103495259 8.5665998648052 5.0256448325998 7.816020797921 7.7027476329891 5.4386249902542 3.9525152025896 6.3602541618374 6.9910499331762 7.0634980413207 5.9944412078703 8.0350055366832 6.2315123586195 8.7742884670573 6.2059398467412 5.8146786426876 7.57409899275 5.9539799375877 7.0289194294138 6.0132643154778 6.655079001026 6.7726171225447 6.1730830607593 8.4097486513329 6.4262687726816 7.6055991435859 8.2007878615533 6.8487473925669 5.9494212180234 6.9710911351545 5.0977555041106 7.5802663447849 8.0941890635768 7.4084765741469 8.1479531411801 7.3102722787728 4.7821060391645 8.0981467777235 5.9108056676645 7.6555205338654 5.7246085937448 8.1089248719534 5.5072569863271 7.5216633435889 7.292738826392 5.708519577165 6.6363949534646 7.6994605875576 7.0581497219266 6.6477948206254 6.9844284172419 6.0123843402109 6.7781323240606 6.0140350929249 6.1760654713089 7.5845289809236 5.8500010909178 7.049566921026 4.5956211059573 7.8138732623222 5.4215526864962 7.2955567289382 7.6143413446796 7.8948263183003 7.0585301847619 9.2824108673878 6.4741879609624 7.4291021359112 6.8931941165459 6.1667481505168 5.2455800261948 7.001191737906 5.3881599706836 5.0831609979124 5.8445557076607 5.3162589535579 5.7011479276951 5.710237129731 5.9330966609722 4.2720826710636 5.6877420046819 5.5434026850335 5.6471056764127 6.1892639518921 6.0593290488489 5.0936390384112 5.8039678072814 5.5613217176953 5.7803555133413 5.5836402701388 5.2517668386427 5.682110973409 6.1981705200988 6.1046512577015 7.5269085857729 6.3207384265202 5.5195927813289 5.6690566372003 5.4850598980472 6.3221589465234 5.680662631135 7.1867113494424 8.0145474512565 7.7350945497777 7.1574574547886 5.4961875175535 6.854881704305 6.4077102781316 7.8748002868444 6.02621460217 5.4093540505304 7.5243458242966 6.1105074202316 5.2253062658009 6.2227479479296 6.883678992457 5.5353488811495 5.5827747694109 6.2054930945352 5.6182788578214 4.6184426747066 5.6016755405576 5.1910573245287 5.2334067503892 4.6310557607461 4.5689985445947 6.018501865492 5.0142802298943 4.3040907463504 4.1115979602692 3.6770634423113 4.4034249688115 4.6089682904597 6.4943702180956 6.9657357500714 6.0773773937829 6.3241084000583 8.4078912642001 5.2846695995127 6.0185819813428 5.8750637249395 7.4460131578157 8.1430523402076 5.4612020149988 5.7247492104799 6.4291279027846 7.7321976572042 6.054277570624 5.8128849910998 7.5425990175154 6.2466216493428 4.9764203630789 5.4113833794804 5.3587919386502 5.2303414173577 4.4339283608891 5.2051511955777 4.5617616023653 5.8218214833622 6.1166837050148 6.0887846823864 5.1156659958245 6.1166659068229 6.0996281480626 5.7664703790606 5.072864662074 5.1389628945593 5.1186846769244 6.2851814481129 5.2780509788822 3.9065384137133 6.4226742254981 5.7320217477715 5.0021377556905 4.9014784340821 5.2870955009035 4.6241982697995 4.5628061507717 5.8376109978673 6.460718695157 6.6752852897265 4.6497086195997 4.0033804105912 4.9811499825404 5.8716801477769 5.9072302538176 5.8993883591427 6.255618041566 5.3060551250012 5.5501813375563 4.8583600468116 4.6780619341728 4.2870374744 4.6408356644671 5.4591651489031 4.2091367341531 3.8669761229963 4.9121734884262 4.180984551559 4.4526906219361 5.2220952594615 4.5190823983104 5.1579166773256 5.4466593292224 5.9952180147667 5.9273702120747 5.1880519408743 5.7135572019434 6.2630979611878 5.1206418920453 3.6160645890312 5.9054204292117 5.8851581945999 5.561178918115 4.597434053173 5.8429712882497 5.6768990488381 5.6446898592518 5.8949441133421 5.1888995876062 4.5337884359567 5.4040910698072 4.594893977625 6.4105075386355 6.1903311863798 4.7669665814194 5.616028657444 4.7665812418834 5.3891066980539 5.8987294737431 6.3821280197962 4.7899503178589 5.0395278390945 3.8393619718923 4.8020857991194 4.5198354410427 6.2485236661688 5.1440820781782 5.5927248558483 4.7969104102279 4.2925618443427 5.3621127456455 4.6693497135198 5.3572554962657 4.205838226464 4.2581144112166 5.9282952507162 4.9707670219138 4.2799490412123 5.7966658608075 4.8907307806011 5.6734221492327 4.4234218859295 4.9894128866667 5.0327634539123 4.4261569176963 5.5768364640209 5.1853297204259 6.2263611547783 5.3555419244832 5.7372069101044 5.6173428933174 6.0124707206031 5.5488388148649 5.5851196857648 5.1694788154955 5.9875267306617 5.4251082095858 4.6200270950109 4.2438984606068 4.6644536292797 4.8720472659955 4.8091837031129 4.8637496766324 4.1990394690777 5.5273242129874 5.8230448385549 3.6936302721836 4.4943764130966 5.2470489507121 4.3414092909798 5.6515155385096 4.7030992884076 4.5211698000702 3.8110684397152 4.8615789727062 3.8295661887861 3.9588041947065 4.6492530964237 4.3068422176492 4.7951467446349 5.4978382515165 4.8382108506318 3.9398927876895 4.1525489546848 4.3918297054531 5.3155093005739 5.89