# vtk DataFile Version 3.0
d-2__ created by libgimli-v1.0.12
ASCII
DATASET UNSTRUCTURED_GRID
POINTS 1303 double
5.625	0	0
5.511811217919	-0.146388704457	0
5.676386535709	-0.13519637448	0
0.25	0	0
0.175228502521	-0.179050409113	0
0.326009290428	-0.144330725415	0
0.375	0	0
0.990207725992	-0.114957291708	0
0.841075314552	-0.137634199948	0
0.926498288371	-0.349340723189	0
-0.001071200562	-0.386156929004	0
-0.003317641763	-0.130454088023	0
-0.192720422374	-0.216308252768	0
1.25	0	0
1.175215748534	-0.200562384647	0
1.341115762259	-0.128605193971	0
1.375	0	0
2.25	0	0
2.168494514827	-0.19848886597	0
2.338304607341	-0.128945294536	0
2.375	0	0
1.911268305082	-0.334701951691	0
1.986191885908	-0.110806668109	0
1.838390258011	-0.128853462534	0
1.75	0	0
1.670105949089	-0.197137117999	0
2.986685504441	-0.10889534818	0
2.838723720416	-0.127406828384	0
2.912854264006	-0.329775839393	0
0.75	0	0
0.664572693147	-0.222613872306	0
3.25	0	0
3.168798596028	-0.193682232199	0
3.337828500197	-0.125181208794	0
2.875	0	0
2.75	0	0
4.25	0	0
4.161099470995	-0.193412132741	0
4.332718836325	-0.127723897736	0
3.83511440706	-0.12403687807	0
3.875	0	0
3.75	0	0
3.901908238995	-0.321557035295	0
3.983050435256	-0.106770030737	0
3.665527023987	-0.190866765849	0
5.25	0	0
5.164693411436	-0.21656556845	0
5.338419985376	-0.147288917438	0
4.834321952324	-0.135810575609	0
4.875	0	0
4.75	0	0
6.25	0	0
6.178399669611	-0.137425451145	0
6.356205370496	-0.193853696818	0
5.817814980918	-0.161175429964	0
5.875	0	0
5.75	0	0
6.611939839541	-0.314381537706	0
6.522886280605	-0.104721203126	0
6.75	0	0
6.669178832877	-0.119404962711	0
6.836073690852	-0.177498311423	0
5.39059629209	-0.37339102075	0
4.660917359886	-0.204007052252	0
4.902096977384	-0.356327271651	0
14.897042426984	-0.319128540459	0
14.98121339776	-0.105010975498	0
14.832720105416	-0.123004000492	0
2.669265824618	-0.196872625129	0
7.656019919505	-0.144451020927	0
7.75	0	0
7.625	0	0
6.625	0	0
8.75	0	0
8.672937461928	-0.164309120831	0
8.834289374889	-0.109279841483	0
8.206809119751	-0.294811800109	0
8.187056112549	-0.110869448227	0
8.024316200302	-0.129362764133	0
7.157390904024	-0.111206354394	0
7.25	0	0
7.125	0	0
8.25	0	0
8.125	0	0
9.75	0	0
9.651145885459	-0.185384966231	0
9.827054067621	-0.122428024454	0
9.381816956327	-0.305807769915	0
9.476753337472	-0.101567493772	0
9.327490061855	-0.116748040282	0
10.75	0	0
10.655660803951	-0.196164841752	0
10.830485405183	-0.127989131147	0
10.386748323888	-0.329675548046	0
10.478464938155	-0.108955040137	0
10.328560245085	-0.126395562242	0
9.25	0	0
9.375	0	0
10.25	0	0
10.15270392044	-0.192469144253	0
8.328856990144	-0.128933011689	0
8.375	0	0
9.153857570119	-0.175508527296	0
11.75	0	0
11.660624577581	-0.201812344528	0
11.833823570609	-0.131890823957	0
11.395399221028	-0.337817920558	0
11.481219500696	-0.111845889235	0
11.331881500183	-0.129806070652	0
12.75	0	0
12.669299873111	-0.199190799603	0
12.839534650452	-0.128328673855	0
12.40897914742	-0.340185307353	0
12.485654611126	-0.112072117633	0
12.336727606385	-0.131188239877	0
11.875	0	0
12.25	0	0
12.164627546098	-0.202605127067	0
13.75	0	0
13.669268468008	-0.186168180444	0
13.837322273199	-0.120178339978	0
13.416957459915	-0.319650485848	0
13.487510959619	-0.105281058988	0
13.34010202956	-0.123833443479	0
14.75	0	0
14.66080663422	-0.189613659871	0
14.399926333663	-0.319306441484	0
14.4823067449	-0.105599641009	0
14.334114343934	-0.12250571155	0
14.875	0	0
15.25	0	0
15.158227025815	-0.185762723401	0
15.330441202311	-0.11956675178	0
13.875	0	0
14.25	0	0
14.163960939829	-0.186365139356	0
12.875	0	0
13.25	0	0
13.171786689458	-0.193064330135	0
10.875	0	0
11.25	0	0
11.158129238503	-0.198418008741	0
7.31587636932	-0.171642077952	0
15.3902841013	-0.308450173235	0
15.478958243586	-0.102394874489	0
-0.125	0	0
0.125	0	0
0	0	0
-1	0	0
-0.706889652808	-0.331752981492	0
-0.5	0	0
1.125	0	0
1	0	0
1.625	0	0
2.125	0	0
2	0	0
1.5	0	0
1.488007132967	-0.109900770852	0
0.5	0	0
0.474245721096	-0.130043839003	0
0.625	0	0
3.125	0	0
3	0	0
3.625	0	0
4.125	0	0
4	0	0
3.5	0	0
3.485533411273	-0.107014956798	0
5.67736414417	-0.368119689468	0
5.125	0	0
5	0	0
4.98353533542	-0.118243061674	0
6.125	0	0
6	0	0
6.009467825362	-0.139471566496	0
6.5	0	0
4.625	0	0
5.5	0	0
4.5	0	0
4.481603306259	-0.111052305129	0
2.5	0	0
2.486482293556	-0.110456056597	0
2.625	0	0
7.828740664136	-0.157959666613	0
7.5	0	0
7.497789303332	-0.098817221798	0
8.625	0	0
8.5	0	0
8.493725508365	-0.094448160765	0
8	0	0
10.625	0	0
9.625	0	0
9.5	0	0
9.125	0	0
10.5	0	0
10	0	0
9.976983002093	-0.106037154081	0
10.125	0	0
9	0	0
8.980258705317	-0.095443922293	0
12.625	0	0
11.625	0	0
11.5	0	0
13.625	0	0
12.5	0	0
12	0	0
11.983083448534	-0.113269018621	0
12.125	0	0
15.125	0	0
13.5	0	0
13.125	0	0
14.625	0	0
14.5	0	0
15	0	0
11.125	0	0
14	0	0
13.984735949845	-0.103165953766	0
14.125	0	0
13	0	0
12.987740386932	-0.109238757727	0
11	0	0
10.980033547654	-0.110118532971	0
7	0	0
7.012790729926	-0.096165366155	0
15.625	0	0
15.653391866104	-0.184257106926	0
15.75	0	0
16.25	0	0
16.151956269841	-0.190746813766	0
16.328162175541	-0.125534698515	0
15.827345422636	-0.12109528269	0
15.881623705918	-0.315197408181	0
15.9768075603	-0.104841845177	0
17.25	0	0
17.155473725888	-0.187015736188	0
17.328334720487	-0.12053442359	0
17.375	0	0
16.97978281674	-0.105790715925	0
16.830585534618	-0.124270763258	0
16.892220832712	-0.321708894118	0
16.75	0	0
16.655725821363	-0.19281499559	0
18.25	0	0
18.144056513649	-0.199584109463	0
18.322695877645	-0.133173012767	0
18.375	0	0
19.25	0	0
19.156955168382	-0.212194778097	0
19.332395147696	-0.137501625504	0
19.375	0	0
18.978107771567	-0.118463258117	0
18.827251646435	-0.137822523984	0
18.884674261801	-0.359498065923	0
18.75	0	0
18.648603260315	-0.210400354993	0
17.973004229039	-0.108213471414	0
17.823362138939	-0.124125311933	0
17.87020700187	-0.324156104502	0
17.75	0	0
17.64837652944	-0.187413016584	0
20.25	0	0
20.167288289523	-0.206556633625	0
20.33799343326	-0.133667464393	0
20.375	0	0
21.25	0	0
21.172020853715	-0.201327641466	0
21.340729826518	-0.130206344264	0
20.875	0	0
20.75	0	0
20.839555732676	-0.132066213667	0
20.987710400762	-0.112937783384	0
20.915843633601	-0.342386775443	0
20.669904108595	-0.203936882105	0
22.25	0	0
22.168893714495	-0.194483818359	0
22.337089427477	-0.126591453251	0
21.875	0	0
21.75	0	0
21.840184239699	-0.127666317168	0
23.25	0	0
23.162361450448	-0.215073727418	0
23.335945395372	-0.148199257458	0
22.875	0	0
22.75	0	0
22.83504078106	-0.133126573368	0
27.412614995451	-0.337768305098	0
27.406417478875	-0.760610856776	0
27.663031754041	-0.476449210851	0
23.674319496044	-0.139602731619	0
23.75	0	0
23.625	0	0
22.902876337082	-0.348446434986	0
22.664415839639	-0.19979598046	0
21.987454968006	-0.109075483352	0
21.916658702332	-0.330379709848	0
21.67241042914	-0.19774510361	0
19.984830323221	-0.115851903278	0
19.835879034474	-0.135573032779	0
19.906686139011	-0.351521653308	0
19.75	0	0
19.663378765328	-0.209646647928	0
24.75	0	0
24.672305039303	-0.121865624882	0
24.84054616259	-0.178479133746	0
24.25	0	0
24.125	0	0
24.179559510218	-0.145425217914	0
25.656694723316	-0.141492417978	0
25.75	0	0
25.625	0	0
25.25	0	0
25.125	0	0
25.159224348757	-0.109007087058	0
22.647257188685	-0.476376729768	0
22.872248033711	-0.780455516934	0
25.317652966423	-0.167196322239	0
31.908525182248	-0.237434634112	0
32.248547795208	-0.367887731521	0
32.025	0	0
26.398062594932	-0.327144710524	0
26.335089901602	-0.124890632532	0
26.169730315141	-0.188549564961	0
26.75	0	0
26.662500836065	-0.197477656933	0
26.835401004001	-0.129534360312	0
26.375	0	0
26.25	0	0
27.486869476066	-0.111474770432	0
27.338367230812	-0.130187170762	0
23.816158307302	-0.168335740772	0
23.875	0	0
24.625	0	0
27.75	0	0
27.67023663024	-0.198727549038	0
27.839431305592	-0.128541986375	0
27.375	0	0
27.25	0	0
28.75	0	0
28.666013303123	-0.192953151514	0
28.835335299513	-0.125393524551	0
28.875	0	0
28.41074998604	-0.32692743598	0
28.485854239984	-0.108071323096	0
28.338261561589	-0.126341817439	0
28.25	0	0
28.169650699531	-0.195402875109	0
29.75	0	0
29.656991685033	-0.201213204108	0
29.830700495316	-0.13323291855	0
29.875	0	0
30.75	0	0
30.665605116896	-0.213760177502	0
30.837855425721	-0.139272404211	0
30.875	0	0
30.987248292653	-0.119871959545	0
30.911614165903	-0.362389547989	0
31.25	0	0
31.174363802618	-0.217041176186	0
31.346460135447	-0.143418487957	0
30.400599561582	-0.360265197586	0
30.483280501431	-0.118794220148	0
30.3336351656	-0.137924489201	0
30.25	0	0
30.159375273254	-0.21004086356	0
29.392934647931	-0.331414044449	0
29.48031118177	-0.110263057575	0
29.331777210358	-0.127344913482	0
29.25	0	0
29.160548153072	-0.194064979946	0
27.167334579456	-0.200440763045	0
24.359650796728	-0.20304719459	0
-0.25	0	0
-0.404335947278	-0.221464959739	0
16.125	0	0
16	0	0
17.125	0	0
17	0	0
16.5	0	0
16.478267427857	-0.108008273171	0
16.625	0	0
18.125	0	0
18	0	0
19.125	0	0
19	0	0
18.5	0	0
18.473681471998	-0.115768873419	0
18.625	0	0
17.5	0	0
17.47687846862	-0.103462148239	0
17.625	0	0
20.125	0	0
20	0	0
21.125	0	0
21	0	0
20.5	0	0
20.486446843971	-0.114298370976	0
20.625	0	0
22.125	0	0
22	0	0
23.125	0	0
23	0	0
22.983281399654	-0.116385827149	0
23.5	0	0
23.509214189908	-0.149359691049	0
22.625	0	0
22.5	0	0
22.48467632496	-0.1093719097	0
21.5	0	0
21.488472844532	-0.111208801785	0
21.625	0	0
19.5	0	0
19.482219828947	-0.117572233456	0
19.625	0	0
24.5	0	0
24.525433875838	-0.108080714825	0
25.824234283709	-0.149177038136	0
25.5	0	0
25.498573523516	-0.096586408813	0
25	0	0
25.014769107289	-0.095147895568	0
21.919931345447	-0.741308582321	0
22.160361550711	-0.463896476278	0
26.625	0	0
26.5	0	0
26.482631880244	-0.108512805864	0
27.625	0	0
27.5	0	0
27	0	0
26.984612185119	-0.111680714924	0
27.125	0	0
26.125	0	0
26	0	0
25.990349817319	-0.10847866492	0
28.125	0	0
28.625	0	0
28.5	0	0
30.625	0	0
29.625	0	0
29.5	0	0
29	0	0
28.983089608831	-0.107750428826	0
29.125	0	0
30.125	0	0
30.5	0	0
31.63125	0	0
31.5	0	0
31.494696987447	-0.123712578064	0
23.671261205816	-0.380102168636	0
31	0	0
31.125	0	0
30	0	0
29.980228243528	-0.115525062547	0
28	0	0
[...]
CELL_DATA 2263
SCALARS 1000.00_0.64 double 1
LOOKUP_TABLE default
8.4067577553894 6.7422280623646 6.8312175629502 7.6485323024417 6.4791303367106 7.872047134729 7.9751555440044 8.823214768098 8.8079154748845 9.0089912684978 9.0771908593121 8.346061853367 7.528847906724 7.8680398626744 8.5840395272484 9.0944841756674 7.2655886153833 7.4986622152386 7.17967823269 8.487181720357 8.838576688256 8.0629571518404 8.1571628554062 7.4543583440903 6.8854982876573 8.5623592287273 8.2732324291806 8.5882622046924 8.7451187792839 8.6092546559794 8.6646498827413 9.1874863415812 6.8111086107844 8.9784526481893 9.0419722264495 10.13907433719 8.8404176255136 10.052384433638 8.3612710566653 10.017959909102 9.6155763983531 8.1173384026559 9.4904676487996 8.9813959747466 8.2347187637698 8.9333808038471 9.1437756484808 7.6601280001528 9.2751970530138 8.8052217710099 10.629151457418 9.3348771932419 9.0942467073547 8.995854724522 9.5146063383685 8.7634396537693 8.134718023847 9.3259023051974 9.5078574654638 7.8202668130025 8.4975351810013 10.105527990407 9.0419623851499 10.26582948243 8.0440944467725 6.4887510717259 6.5395743399626 5.9793562078766 7.7599855808954 7.7258981811287 9.0281911288145 9.1120074687577 8.6956944705898 8.9006251335693 7.2149822078695 6.6366585768485 8.0829399519441 8.4005443927243 7.1392827616173 8.1842826963582 7.3366990213613 8.8982799445587 8.3172051549653 8.6514479459866 8.2224760128671 8.3691940556828 7.0934332053234 8.7188730015113 8.5453897884605 8.4154845775322 8.9696601814785 8.4449629015329 8.997231780546 7.4269650887885 9.1955840286512 9.6053774702383 8.9114129808901 9.4016331682695 9.0176170344506 9.152126545949 9.9684630038201 9.1992066199073 8.4416392424034 9.9141047889859 9.6007511079017 9.4001358417324 8.7951070581266 10.015468956941 7.5228486737885 9.4103403655623 9.3341426182257 8.3138632438209 9.9349827275361 10.805555102315 8.3938892345651 9.3220959838171 8.2624728294756 9.7136816862629 8.6891838287594 9.174515988559 9.7188997257514 9.6175200826635 8.1548652752555 9.3538037130172 9.724764207845 9.1979072061546 9.0717803087269 8.840072427492 9.9498974265445 9.3402664094741 9.6384522450575 8.5672900814878 8.4937288787444 9.8496929170039 10.104839649804 7.327811872204 7.2726526122022 9.5351772681144 9.7362430486014 8.5509585311615 8.3525263861472 8.5488950505191 9.2063968824677 10.808342085046 10.813302573411 8.0217137652724 9.4241593304755 8.9511366435308 9.5168021691249 9.0313299305178 8.7965579881005 8.8434695856996 8.4215271004945 6.8258725353687 8.2661312591527 8.4144021972966 8.4315013890505 8.7632374039301 8.7038675095587 9.8261898808643 9.4398625469052 8.3909586571598 7.5805992295286 8.9662621259892 8.5553654141648 7.4895851005161 8.5541822991143 6.4641987673145 8.0120878880067 7.5289234666822 8.1548679238406 7.5185890452285 8.2034455778354 8.3217571281698 8.2290138766011 7.788762223479 7.5378234170773 8.4775358742507 8.4980872945745 8.222864108246 8.1503942451138 8.0188613990998 8.0076240031466 7.694851054731 7.7281272509122 7.5889397461816 6.9989499603133 7.5378533414206 7.5137186136939 8.135597755909 8.299822516843 7.508449253409 7.6026518193208 6.2857234226537 9.4445180696561 9.1255527257759 9.3448295095434 10.047684940583 10.1593131433 10.097812748581 8.0881440791611 9.3675078520643 9.0554296302297 7.7700668338357 7.4765269070856 9.3560611617574 8.660527794881 9.4850243131779 10.634234334234 8.0750231993643 8.6065601972769 10.34255778385 10.950224173095 9.0517879113146 9.0529800124767 8.2122351865701 8.9407625993777 8.5052135860213 8.4946862706485 8.8446706222427 8.981961444765 8.5021363481771 9.7917597642273 9.6594027504775 8.1772089159303 9.3904484393731 8.1720789326162 8.8357401679633 9.0207254445623 8.6678849159382 7.6064383487799 7.6407887198674 7.9113915620695 7.7570721551019 7.7024614156547 7.5587647764544 8.3995830051797 8.6603408519797 8.1180803958153 8.476411095524 7.689424913675 8.2279061448995 8.5204481131834 8.1101657543257 7.5306139220428 7.6609255466236 7.5276137998888 7.0973697879241 8.1066298831352 7.4331252759991 8.3925207068639 7.7177107041174 7.0823288498057 8.0650839341165 8.5066480100554 7.8221929990878 8.6615665286956 7.0113128557596 8.9238462362223 6.5793211306423 7.4390776550202 7.0821383552415 7.7324027016962 8.3832068522062 8.9931248195947 8.8995942515031 8.8711207814202 9.1956710195651 7.3162251778113 7.7659452648687 8.2246751831207 7.5366510184739 8.5024880881253 9.340045697778 7.197040750609 7.7303636819156 8.5247174440811 8.6662545961081 8.1657737346194 7.479192308455 7.2589109644122 8.0392082269549 8.4247665679057 8.2410898980497 8.7630496310492 8.8923601713867 8.9277425793396 8.4450098927859 9.3078440857247 9.3553204591833 8.7397723214937 9.1999843115418 9.2945172309674 9.5967001601535 10.012617889879 9.9104438685443 10.069332728891 9.3818973010531 9.9235660504282 8.6695363706274 8.4307134545625 9.3708183122933 9.0985058749561 7.7527942493511 8.2158387516077 10.26548413769 9.6099327139309 9.4007146405952 9.5374674264805 9.6063034417205 8.5476730573649 8.5551561522007 8.2488147848518 9.73084254404 9.512313320517 8.2314553044336 9.1307094925759 9.4621154568858 9.1089980763526 9.339315548687 10.163877469531 6.1870721431699 9.3287834924541 10.234917570842 9.123205064238 10.019874430592 8.9956235481802 8.8351384095735 10.060129340503 9.9060512712154 7.7385584954252 7.4734759671583 9.1607408691719 9.9094855454064 7.958856583988 8.9346102305019 9.4974796889385 8.5450722650018 10.809158195388 10.594973963571 8.3005527529898 8.2996313463198 10.004220944093 9.0444852075189 9.0310549439868 9.0564011553852 8.9693239639325 8.6921062958969 8.1097100022227 8.0768997639702 8.6582336148862 8.6705548588504 8.5838117913684 9.0008960640588 9.5036658675662 10.086159701147 9.0188958051757 8.7209452948978 8.6940662013796 8.671888699852 8.1681584855029 8.8340371860805 7.7635224981705 7.5177164794282 8.5218777262454 8.0132461606855 7.712945561413 8.0139941028023 8.4835700851117 8.5274216443526 8.077774499589 8.3844289481056 8.1456321459834 7.8884365819328 7.6632557942491 7.6527202161136 7.2693445317165 6.9698818745744 7.5948017502716 7.6343149570731 8.441727936095 8.247911432887 7.5341163362351 7.646560072272 8.0432932781664 7.9972701995847 6.7715714600953 6.3964893867868 6.9440332687103 6.5605275212507 7.0480266101654 7.6064272184043 7.6288909249567 8.432598870274 9.1532280485547 7.7770971841221 7.6910663702114 8.2297100488923 7.1258001790821 6.9592432308253 7.5352931556014 9.3307367005138 7.6086736033154 8.5470756481805 8.1219649480688 7.4908525353399 8.1885979421819 8.1994224157615 8.4766818820952 7.2682980014538 8.5608895232432 9.2815049133478 8.7046786136404 5.9578972355821 7.8571216693656 8.9297567241483 8.9027297562356 8.7757450311314 9.3708554599966 8.8338922344935 9.4052082812875 10.205976934839 8.8910702201394 9.1186979893847 8.3793486736016 9.1894928679556 9.6439531383559 8.5969983610078 8.7539935577325 9.5807293681407 9.1852118300456 8.9654867244638 8.9411461414428 7.8031208489533 10.734578369549 9.2143207184727 9.1746491700915 8.8535719577338 8.6492846047475 8.9069856939284 9.4281029236272 8.0297081573309 9.4900815222872 10.491477334543 9.3471860298103 9.5417004495477 8.3234955995792 8.1348823309574 9.6574780300623 9.9223424749645 7.1720924434159 9.0363905115802 7.9073978711729 9.567005823819 8.3525797911694 9.8088068619874 10.155080981061 7.5476974021549 9.1692055827429 9.6952744482142 9.0702264981035 8.2997034769044 8.5496140091171 9.3470440468813 8.0222061482759 7.4212887058598 9.4355211873203 8.8689106240309 9.5136506434104 8.0292174631433 7.9806786061581 9.0796323576331 10.110808864488 10.263486960413 8.2896742426077 8.8308180965957 8.6560975690169 7.9542891177416 8.5365654871795 8.7629433996739 8.7752599832934 8.8921041452677 8.5141592932578 8.1973879949902 8.7155996149391 9.5738408210734 8.6070259534755 8.7647881547069 7.7166050899736 7.4926307689191 8.1431649007522 7.3880655164078 8.0882055997817 7.8570450738142 8.3295259782549 8.6304839045497 7.2826177590561 7.9220808680112 8.212811659594 7.6193048609964 7.5424486754215 7.8552578604294 8.2803358577271 7.3203801692719 7.5376101462185 6.9231198236372 7.5432218972765 6.6262887593528 8.0218939652377 7.7947882908398 8.2681557282144 8.3875202514112 7.9585933298302 7.4208600237243 8.4640957473647 7.675822588292 6.0909908554193 6.0898679687072 7.1611257240786 6.7343908820287 6.8026253137665 6.9460435617691 7.9899491644989 8.1424956545558 8.7090073816568 8.8307909576247 8.896093900074 9.1643996287505 7.5032061637851 7.6961848509696 7.5811793566293 7.6542302400954 8.722416610321 9.3271472967322 7.2446553868731 7.4311740796629 6.9241396510622 8.6336697858432 8.4900608990198 7.9199987996279 6.8769625118362 7.0080872218578 7.9812893575778 8.1936079829727 8.1029433787354 8.8766279704781 8.3973141125486 8.4972425126028 9.6972003718776 9.3454904716143 9.1131033878599 8.7951723540407 7.7327374921861 9.1662845056904 9.4555304895428 10.07167699651 9.829424263104 10.116222390288 9.3681018951101 9.7615849839709 8.2687653059149 8.1851944800265 8.7503736899827 8.8246349902735 7.8946099767985 8.0433681505889 9.4471318856007 10.210369418919 9.4324589850301 9.4261059305252 8.7620391189748 8.6270876376975 7.9525536808868 8.0242872378143 9.4862944872737 9.4563413150609 8.8146016529249 8.9028890293002 9.1140282824817 9.0135067956741 8.5377714438808 10.530119049689 9.4274734137464 10.347252443885 9.3675224783311 9.7863173776567 8.7860622676715 8.6371296152462 9.8607303493305 10.087958572304 7.3559460655552 7.3384610202721 9.3179343104131 9.8245494287926 8.2408794953031 8.6969427759399 8.7566860429217 8.8161612553474 10.236324107438 10.676372772507 8.0629815015292 8.1393463426743 9.0666693068106 9.2526065170127 8.8148104215426 9.0734731778163 8.1125999156331 8.7402824624193 6.7787150029831 8.149031422507 8.190145419568 8.5138933889885 8.57798741631 8.8706573755293 9.5134688947287 9.7388920964335 7.0424319073282 8.5375677729728 8.2341046100685 8.6915747076608 7.5031720241775 8.5751027051462 7.7582141992818 7.4882289201762 7.6655525266884 8.0769470670355 7.710625401436 7.9151917944804 8.3194705117298 8.4962841365057 8.0785792558106 8.2753486161999 7.8097847444693 7.9448170768256 7.5760771177062 7.7097219258298 7.0394121100426 6.9453431086744 7.4698170184538 7.5751534136178 8.121420973468 8.2465755030509 7.4181555770582 7.5714111077146 7.3337976121153 7.6813573728103 6.2110811247546 8.4943272707645 7.538246474459 8.7265665838502 8.3764580223678 7.2550608486526 7.8786364865343 8.2761768027091 7.0392877067378 7.0478437701625 8.0665895810239 8.6891556366844 7.8455033549577 7.2525100668345 7.3679921035369 6.9768091239958 9.1552062377051 9.0121943780811 8.3578841913368 9.4784590701834 8.1790238178583 10.340872542237 7.4797678093238 9.0801284507077 9.057787731662 9.6031221423647 7.7745756436296 8.1849671835607 7.8232799381266 8.8707415538621 9.2934097953196 9.2553826123729 7.5917245987132 8.9999956212873 8.2450660843112 9.6696082671524 9.2628340692868 9.1078759569474 8.5409032185446 8.6760861023678 7.7361999121706 7.4893918708909 7.6944788742184 8.3101223580104 7.7721541373075 9.6468468155223 7.4410351456492 8.2916605289562 8.8359148574639 8.4324801116402 7.9302977538952 7.960264907432 7.7424804471218 8.6137897626617 8.6502610743923 9.343812833773 7.5944365262513 8.3921166747081 8.5574274226963 9.1465368302559 8.2570530581551 8.8657642264441 7.3161953133056 9.0176337930682 7.6198151467792 9.1072831447345 8.839837550027 7.6014398409522 8.2263628305037 9.3248694062534 6.9829681117248 9.4631611386952 8.4994370344647 9.8439541721689 7.1969842371068 7.4230996405038 8.353941273064 8.6408235660868 8.2628598049265 8.3164771958744 7.867915477833 8.6965422316834 7.7272400975168 8.8400174416249 8.6674037436873 7.1157871520675 8.1812203355386 5.4549650246188 7.1784805439106 6.812093073236 6.3620922431148 7.6167817939126 6.9330654158105 7.9921405733522 7.8529864015167 8.9158438159695 6.4507164172614 8.4658776648256 8.6016739040142 7.4466075448647 8.4091780103553 8.2122022553488 8.5737611232182 7.9006554796483 8.4788138951565 7.938819521875 7.1231127485595 8.3090078122295 7.9435302603559 7.6160439543515 7.3451048995672 7.6309271423504 7.1066116013087 7.4201401115673 6.9912586412031 6.9891636871701 6.6338005525807 6.452383420296 6.981327222576 7.3210707777229 7.4623578326412 7.8919932705157 7.7906325003192 8.533706380024 7.0112269850712 7.3530255085236 5.8905574729134 6.2163635089413 7.1270534846099 6.5508432525964 6.3456461645957 7.3819439754007 6.3048494479218 6.61093687516 6.7530608195879 7.0524293385199 6.065019360868 6.6457162861118 6.2933827761589 8.3837651644782 6.3481183959106 7.7156560231086 7.8831423868295 7.1842260024581 7.2046483135808 6.3570751351524 7.0788477741701 6.9817726816139 9.0916537528599 6.8238189890155 6.7051358565628 7.8026087600639 7.8407146253071 8.6316803506131 7.2632894241287 7.4701400182529 8.9167484776905 5.509134642059 8.3386156419708 6.747247908501 8.1096127277583 7.372032007561 7.1776508746401 7.3411132897631 7.6842438736298 6.9333615245226 8.1997534223455 7.4728114544821 6.6190635357269 8.7597655132179 8.1281611161925 8.4313349914254 8.3726287792538 8.7602482554685 7.700546697947 8.9122444587049 8.1024419937306 8.338131076721 7.6911851596893 8.4245309021813 7.352584901941 8.6614652256071 8.2416794601043 9.276091992471 7.6655478703334 9.2500375431723 8.8566371288738 8.5797040524305 8.3969080819371 7.0055185312198 8.2485963276598 8.9919561830167 8.2929842018708 7.8494614865917 6.9354086298865 5.2479166214552 7.6207708315528 6.5402589327693 8.1837948326486 7.0584321609186 8.7506137929839 7.347144288916 8.6435912386885 9.3652371613129 7.3938355747905 7.7907706375018 8.4538945815597 7.5978795096623 8.3460263982104 7.3388969541463 7.4313789678164 8.4753129462787 7.7207535069501 7.9721156657522 6.6040548828158 8.6268213792118 7.8655314594997 9.353107656362 7.5445332471036 7.9203302170942 7.6549201544473 8.3080004581511 7.6223867291695 7.4115287611179 8.4139411800307 8.0593512622483 6.9444974401323 5.8430393156037 7.4355011837705 8.9643670557738 8.2473570015134 7.0475235069636 7.2504268401492 7.3860896832958 8.8596232384674 8.2169516693681 5.5977862843337 7.6356398911735 7.3135253680609 5.7498526334604 7.2293196013358 7.6986024980083 6.0081472945414 7.1181488684188 7.3970292023544 7.3285102077677 6.5894572879426 7.2846766991648 6.9971730809812 7.5519177520232 7.040699996639 7.8370222890502 7.3462491466648 7.0150308686796 6.691124616762 7.4118733188013 8.2538352259889 8.6110877241715 7.1153691528116 6.9324360981583 6.5087306032191 8.0036049786862 5.6293130671833 7.7023353968967 8.1299014736797 6.6146205562657 6.07824212833 6.6005067467746 5.2802552054344 5.5715725141598 8.2648847235296 6.6016815980612 8.5482307755087 6.9734225394716 6.3936428392889 6.5058189158748 8.2795843561682 7.2780292595451 7.6525073156335 8.5398287922509 7.3161360278021 6.5739139732446 8.1925586390799 7.0526114649879 5.5317804750051 6.0325996118843 6.3655639011704 7.6815971866675 5.8703771343119 7.8706412466045 7.9447424004965 7.4266630026096 7.8414146975683 8.663569638977 7.7099280984804 5.6470026231001 7.3712847200386 7.5857229584567 5.3722307968649 8.4844910022562 7.0031842917998 6.946883892025 8.6270472773738 6.0152473797536 8.2615940570442 5.6290787911757 7.8371096525433 6.3399805433046 7.6626929316068 5.867029740414 7.3458593926937 5.6504292512072 8.5434414745588 5.1047033673411 7.8340418876321 7.5862131002928 5.3314684036836 4.0061115051822 6.4408808502259 7.0179065325615 7.0518005087437 5.9720790149277 7.9241820984977 6.1679460281262 8.584973072645 6.1592509970115 5.8845334192125 7.4195347889805 5.9010857886777 6.9755587020219 6.0082133381216 6.6592037825232 6.7729992939316 6.1983536606919 8.2350668757857 6.4252267192396 7.5263258956502 8.0995240613633 6.7699596545731 5.9798457205667 6.9554956534317 5.1948639168489 7.5325219158425 7.8627141971983 7.2415672963505 7.9483833649254 7.3882067132892 4.8183523455504 7.837042680125 5.9109009501011 7.581509231271 5.7503446459054 8.0159898145084 5.5725291207396 7.4486838532366 7.3175950194719 5.757639692455 6.7453626958138 7.5529299815846 7.0030390187756 6.764496038665 6.9458128025121 5.9015890337147 6.7148884234816 5.9340194984231 6.1069637052007 7.2746524512288 5.8542444893065 6.8330555149822 4.5981623264893 7.4579996089348 5.4802454941568 7.0199571859646 7.6667750819809 7.8376795924117 7.0701754852014 8.6542715874834 6.5162382738269 7.3575755915834 6.8925220675631 6.2041566293073 5.3125680849378 6.9081029421148 5.4616725904642 5.1290672295044 5.8731823148139 5.2988621122697 5.8558493870581 5.5900737409698 5.863324005268 4.3159842546027 5.7955063018586 5.6205866774288 5.7834411270822 6.1047030209017 5.9759754560054 4.9657985991761 5.7844897207888 5.664375279012 5.8830211769914 5.6859753793726 5.2311641666603 5.8194453377547 6.1222362822506 6.0148012346304 7.5296030756697 6.1786999133425 5.6065318560251 5.7087584785779 5.5589259715886 6.3781840528705 5.6317222580365 7.1438208262454 7.9358350384862 7.6598726573552 7.142400788973 5.501262549177 6.8330514143295 6.4072843292605 7.7936909639306 6.0384435704381 5.4407671313432 7.4638819790855 6.1197050038177 5.2586001765002 6.2386115203463 6.8650483684405 5.5692727251446 5.6103008894476 6.2188756226722 5.655882978313 4.6530463889759 5.6306224470341 5.228178607797 5.2703891924751 4.6670396928086 4.6439484424521 6.0097928200219 5.0366292419584 4.3385166202627 4.0580349018358 3.7080544028353 4.2696933748599 4.4846892789007 6.4656470219364 6.9251980285546 6.1049578489024 6.3824880865319 8.4468333120103 5.3440355689479 6.0606913560346 5.8418529585571 7.3176908908277 7.9072637696863 5.4616249300262 5.7300617897377 6.3965706692172 7.5328409193039 6.0368742853169 5.8182502052389 7.376115200536 6.2060140019435 5.0362356394638 5.4595165208803 5.4705971001734 5.2714564032372 4.5030626750063 5.2606262168745 4.6583082962794 5.7521429888004 6.0072557032134 6.0174574782125 5.0530599022556 5.9773799108992 6.001790289716 5.6402227233858 5.0116295364289 5.1026620402786 5.191786320868 6.2424359618353 5.2516514531162 3.8254877909901 6.3281335759294 5.6227824490851 4.8648636884117 4.8029547075381 5.2880126213883 4.7138063259415 4.6017869053122 5.8389054026539 6.462968672212 6.6564604971928 4.7083673298628 4.0455203932729 5.0340393764102 5.8918732063837 5.9203899097732 5.8841876844144 6.2912480981528 5.3852760308702 5.570748891595 4.8941376794483 4.731616773633 4.3377950188583 4.702965623638 5.4844733373694 4.2712270404088 3.936140534095 4.9582445681792 4.2531055878195 4.5255271049047 5.1142621300974 4.6146812398199 5.2621675262324 5.3516674344976 5.9205563856325 5.8372820320238 5.1429605203725 5.6192245672017 6.1497941910176 5.0312183312395 3.6095907892313 5.7946304551343 5.7682438339091 5.6643106846968 4.651633526124 5.9020879407778 5.5908950083224 5.5397502123566 5.7607877222433 5.0557944444292 4.4180904131058 5.3360980142266 4.6623264901348 6.4378984068377 6.107223084923 4.8019071022573 5.6367142437218 4.6435210358933 5.3835202814777 5.8549381840044 6.3889197820318 4.8414951581858 5.0910852279456 3.8776874136919 4.878731117149 4.5683330635898 6.2151419875043 5.1747884450577 5.598549300855 4.8304048270284 4.3426789421139 5.3621302820171 4.7342540615583 5.4264014986869 4.2833440981782 4.3141392708819 5.9161664175023 4.9996265820114 4.3593892773422 5.7201747437225 4.9500418762267 5.6688817255283 4.3835979496877 5.0310346729393 4.9779898136699 4.405725015261 5.4797128421631 5.0304882352393 6.1059831055684 5.3168967381733 5.6252744028485 5.4821838220736 5.9039181442246 5.6437732890793 5.6971064867345 5.1993348661654 6.0403782832671 5.3281386355098 4.532329676293 4.1350162587048 4.6108803267454 4.734655901196 4.8487822477633 4.9041152602614 4.2698791621728 5.5945132581317 5.8914091796446 3.6799273853464 4.5540714098384 5.2544804120942 4.3859111757957 5.679551142938 4.7453981682309 4.5917639136021 3.8670950909495 4.9413278663341 3.8890530966026 4.0162913610642 4.7168585952885 4.3532121824164 4.8261052652848 5.5293900043694 4.8798368863543 3.993642836433 4.2019624360889 4.4609606261473 5.1733