# vtk DataFile Version 3.0
d-2__ created by libgimli-v1.1.0
ASCII
DATASET UNSTRUCTURED_GRID
POINTS 570 double
14.5	0	0
14.25	0	0
14.386963504964	-0.201738469428	0
22.399299936458	-0.310870122736	0
22.129824335287	-0.229914148082	0
22.126320781198	-0.518791771445	0
8.472303742627	-0.591754876635	0
8.780507935475	-0.76092407121	0
8.82173151259	-0.349253271447	0
18.663262297679	-0.667179415955	0
18.934786529245	-0.453308328646	0
18.636898038907	-0.29588182328	0
4.016904362632	-0.85330676142	0
4.076038737616	-0.331410355179	0
3.713721571226	-0.470767763626	0
1.89953779852	-0.269343012166	0
1.633800503821	-0.203067612233	0
1.644492760828	-0.441295523531	0
4.368408037607	-0.250833874131	0
4.337474161742	-0.544420985055	0
4.67745607622	-0.378433532554	0
1.406172533733	-0.772361039307	0
1.913288206557	-1.218576310882	0
1.90687689783	-0.651895683444	0
2.5	0	0
2.25	0	0
2.347047126858	-0.185539804102	0
1.374000926997	-0.300418771701	0
1.25	0	0
1.114902662369	-0.201591505098	0
1.067401015567	-0.470108640981	0
5.75	0	0
5.699780065382	-0.324747799653	0
5.924584257371	-0.172748359932	0
0.883560935405	-0.231136840652	0
1	0	0
9	0	0
9.117836368049	-0.253904480787	0
2.625577516194	-0.346770599322	0
17.859079774019	-0.943547525024	0
17.535029634209	-1.703182852412	0
18.338018094476	-1.366069799339	0
19.932263871771	-0.826489183604	0
19.881635677668	-0.346204516721	0
19.622287080959	-0.573770479943	0
1.5	0	0
1.75	0	0
23.25	0	0
23	0	0
23.109690227386	-0.220340974338	0
2.75	0	0
2.142562771237	-0.172460438312	0
2	0	0
23.332392704446	-0.202507275941	0
23.5	0	0
19	0	0
18.75	0	0
18.888143078348	-0.195773419804	0
2.90152418742	-0.185685383897	0
7.612175045312	-0.180627982114	0
7.527150943175	-0.401430797998	0
7.881917737402	-0.30462800112	0
25.630635194756	-0.512020961038	0
25.243766894324	-0.80097755811	0
25.758031115142	-0.952821630144	0
3	0	0
28.84859809239	-0.201276387394	0
29	0	0
28.75	0	0
4	0	0
3.835807353334	-0.199536243303	0
3.106904732949	-0.178783649348	0
29.25	0	0
29.092446172194	-0.305987136665	0
13.5	0	0
13.667851890428	-0.185102765244	0
13.75	0	0
3.75	0	0
14.407363653886	-0.441423674912	0
14.125469935998	-0.279652141152	0
4.25	0	0
5.061980176718	-0.407989246181	0
5.335512032876	-0.269401530321	0
5.113979852892	-0.173834924157	0
11.882046000841	-0.812345557852	0
12.478640631525	-1.146569360669	0
12.244190771573	-0.565936619511	0
3.633270844505	-0.195395238442	0
14	0	0
18.378272976509	-0.514977451159	0
5.5	0	0
9.619519097921	-1.16461851757	0
10.030576753886	-1.587265312651	0
9.961661342999	-1.070235523667	0
5.25	0	0
5	0	0
13.157975569138	-0.830425793913	0
13.83833027638	-1.238601004239	0
13.671302359608	-0.710707966059	0
11.325917093147	-0.8366783502	0
11.612143285947	-0.506264798476	0
6	0	0
7	0	0
6.83842404292	-0.188923754932	0
7.11236984822	-0.391746146843	0
6.631875629497	-0.169178192832	0
6.75	0	0
3.21002197083	-0.595267231049	0
3.445510026908	-0.608065324465	0
3.362318141622	-0.306501255187	0
6.120159502895	-0.164221934939	0
4.538525595924	-0.906226152762	0
13.233775457127	-1.737244787017	0
4.5	0	0
16.138065841822	-0.472802517973	0
16.126746690205	-0.221608117926	0
15.859319180798	-0.326402762318	0
26.080401003391	-0.227842452866	0
26.25	0	0
26	0	0
3.019224421113	-0.401469974918	0
8.234901607028	-0.35771789179	0
8.518285578354	-0.242327591839	0
8.328777073389	-0.153008859619	0
7.25	0	0
7.400656881666	-0.195280611572	0
7.5	0	0
5.385509485898	-0.709154879541	0
5.948697127931	-0.745234910621	0
8.75	0	0
8.5	0	0
8.25	0	0
2.214249105773	-0.404278959534	0
2.896561357202	-0.792481120253	0
9.25	0	0
4.920911116561	-0.192028847294	0
9.651670336652	-0.200847798694	0
9.849824537955	-0.19917205686	0
9.75	0	0
10.095049354068	-0.315754204277	0
10	0	0
3.25	0	0
6.738406513564	-0.710129601907	0
7.121614580011	-0.943026074581	0
11.345829942703	-0.314788260019	0
11.25	0	0
11.104427225455	-0.188863495516	0
6.052412255932	-0.372556729023	0
6.373371846535	-0.274163514827	0
10.25	0	0
10.380281579003	-0.241092027437	0
10.5	0	0
10.75	0	0
10.909079077441	-0.189427130481	0
11	0	0
6.25	0	0
6.5	0	0
4.75	0	0
3.5	0	0
10.672815698565	-0.318467932684	0
10.772487906066	-0.787092734739	0
11.020900486567	-0.439266778492	0
8	0	0
7.75	0	0
11.5	0	0
11.619450354736	-0.231443672836	0
11.75	0	0
8.139317726831	-0.163309591658	0
12.25	0	0
12.158949464947	-0.235415698299	0
12.412455385193	-0.275030800337	0
12.929165084344	-0.221336108042	0
12.686337592177	-0.258437422252	0
12.900449535554	-0.462768612232	0
12.5	0	0
9.405755833308	-0.325979504745	0
9.111697192308	-0.594170467817	0
9.457257345083	-0.753685223931	0
18.101369157139	-0.618560521812	0
18.336839281097	-0.861122419318	0
10.385948631267	-0.570640149046	0
9.5	0	0
13.411260455969	-0.342646276848	0
12.643108055516	-0.590179775368	0
13.137744715761	-0.195204172124	0
13	0	0
21.25	0	0
21.358341816502	-0.326561417551	0
21.5	0	0
13.816492716597	-0.40394453634	0
20.25	0	0
20.423452336785	-0.313445603959	0
20.5	0	0
17.789350393153	-0.390447709085	0
17.987794057246	-0.401472255242	0
17.881276545163	-0.206424156589	0
19.564465692234	-0.270867872644	0
19.290725118801	-0.49926248604	0
16.392319441256	-0.29915360323	0
19.443730892406	-0.923508713428	0
20.457987075478	-0.803203365193	0
20.167450719332	-0.505159975143	0
0.103762538371	-0.253013629949	0
0.267057015134	-0.483604909932	0
0.374713194419	-0.2320817565	0
13.25	0	0
17.415572543912	-0.230682214253	0
17.5	0	0
17.25	0	0
18.108153655084	-0.208141099276	0
18.25	0	0
18	0	0
15.75	0	0
15.544586046819	-0.246453491997	0
15.122708481244	-0.193620038745	0
15.25	0	0
15	0	0
19.75	0	0
24.149237782749	-0.319013340846	0
23.842766599446	-0.577371105011	0
24.183995039967	-0.73159476451	0
13.871646321742	-0.17394291424	0
23.862588150518	-0.245417872715	0
16.84024277193	-0.203626765466	0
16.704049384397	-0.435508179396	0
17.112673188265	-0.38804641709	0
24.75	0	0
24.832880292394	-0.290571430318	0
25	0	0
16.40158555625	-0.755912194683	0
16.850299990829	-0.757941865332	0
17.75	0	0
23.567455674596	-0.325197491724	0
16.25	0	0
16	0	0
22.645812614293	-0.197864648876	0
22.75	0	0
22.5	0	0
16.75	0	0
17	0	0
24	0	0
26.914424714815	-0.337869958787	0
26.621963281699	-0.624626679172	0
26.977877660759	-0.778408201088	0
26.622424322919	-0.264588309935	0
19.34462271879	-0.199329831305	0
19.25	0	0
19.118057075065	-0.225686869553	0
19.5	0	0
26.75	0	0
27	0	0
27.5	0	0
27.604422363523	-0.298869962794	0
27.75	0	0
17.650384190064	-0.227839036584	0
18.343198956448	-0.236734208617	0
18.5	0	0
24.25	0	0
20.143897114391	-0.233773711865	0
25.5	0	0
25.25	0	0
25.344389320279	-0.31693710653	0
21.059546193318	-0.24845941382	0
20	0	0
25.842927934822	-0.248287716678	0
25.75	0	0
25.613904645132	-0.216025146631	0
21	0	0
11.763551406169	-1.481607093928	0
30.981104050195	-0.5526690913	0
30.873880294509	-0.217692518774	0
30.706626759758	-0.34945139905	0
20.75	0	0
20.85240828135	-0.178025243856	0
23.75	0	0
20.66289882074	-0.189089155251	0
30.204950808504	-0.791758966623	0
30.715535843381	-1.149995259266	0
30.543724897762	-0.572259098027	0
30	0	0
30.180216671806	-0.343473673313	0
30.25	0	0
23.229584388362	-0.458653998547	0
29.5	0	0
29.623391954444	-0.322069028408	0
29.75	0	0
21.618913855927	-0.233585823579	0
21.75	0	0
29.348490380579	-0.521100538161	0
29.36294710412	-0.230601226356	0
22	0	0
22.25	0	0
28.25	0	0
28	0	0
28.129259193923	-0.314252106503	0
28.44374413871	-0.484576386004	0
28.100199615755	-0.812038297775	0
28.649230646972	-0.871769248311	0
28.618403654115	-0.227691192115	0
28.5	0	0
28.387848605749	-0.205892081491	0
29.054768525933	-0.708603081552	0
29.344906532636	-0.846887322836	0
26.327430876245	-0.35930637997	0
10.349120516034	-1.04150119828	0
10.894920134778	-1.514321070539	0
24.59640839418	-0.191760546865	0
12.75	0	0
24.5	0	0
13.102881121377	-0.411296235356	0
25.099388239946	-0.214879887129	0
25.97986022697	-0.52841375324	0
24.398993403151	-0.196312410538	0
17.860840746535	-0.577367743328	0
17.566481510048	-0.529340016102	0
26.5	0	0
16.637148248735	-0.188015807345	0
18.183918302467	-0.396443618316	0
27.159348252167	-0.205297590358	0
27.357530053515	-0.198815038154	0
27.25	0	0
15.060354649709	-1.112587998155	0
15.51532665618	-1.043792149387	0
15.178150912169	-0.713100616689	0
10.051363365948	-0.719159376333	0
14.661248691948	-0.27865166374	0
14.75	0	0
27.868836823455	-0.217301839861	0
31	0	0
30.75	0	0
-0.020273477909	-1.415389842481	0
1.054972770973	-1.487485199502	0
0.512583677021	-1.0438154777	0
0.75	0	0
2.361419414365	-0.794513604096	0
29.890297721653	-0.2433406165	0
30.473599299501	-0.238575611274	0
30.5	0	0
30.660802173874	-0.161931182737	0
28.783812899585	-0.467926883932	0
4.937022539393	-0.72440615077	0
6.696914540879	-0.380672503721	0
7.434272221796	-0.695675918868	0
15.339606453815	-0.166204802571	0
15.281953315711	-0.388999642276	0
11.893544445085	-0.335972898148	0
12	0	0
9.753796445798	-0.478866225926	0
7.720012958977	-0.638314519759	0
21.871398197179	-0.313006985103	0
21.615176662754	-0.521922347305	0
21.856785525528	-0.665128848631	0
20.792152536902	-0.448319093295	0
21.109577821412	-0.527879642114	0
21.360297691811	-0.734200004244	0
15.547854961707	-0.580173571081	0
24.496861814148	-0.467031445896	0
25.067351422649	-0.463427753535	0
24.81263825963	-0.684738154192	0
22.865620821195	-0.218348593093	0
23.443705587002	-0.773171720633	0
27.277617447467	-0.489224417775	0
27.863714790534	-0.471681393437	0
26.239117668995	-0.863279739365	0
29.896797054636	-0.547765129844	0
29.612773839625	-0.699757135752	0
29.867172666547	-0.87444432816	0
29.610354212963	-1.521444655905	0
29.59548165142	-1.071765512911	0
29.115129171034	-1.220660174798	0
31.345359428525	-0.458952144926	0
31.144859415042	-0.241304201582	0
15.919565295974	-0.746550096707	0
16.063006820294	-1.289595303187	0
16.5	0	0
14.900855313538	-0.178071167744	0
14.161016743654	-0.72559708689	0
19.011498044983	-0.834202892304	0
16.760433281999	-1.263698818643	0
17.280361389946	-0.931704507314	0
-0.627742252535	-0.296285438777	0
-1	0	0
-1	-0.5	0
0.625738545692	-0.228405936136	0
0.5	0	0
3.313957665883	-0.865581185485	0
3.619156095452	-0.800599314657	0
[...]
CELL_DATA 986
SCALARS 100.00_0.16 double 1
LOOKUP_TABLE default
12.001707466552 10.153757905364 8.7856938344369 8.8367393052496 7.939581351251 10.262312680195 8.9630411417043 6.3406353397312 11.129936459435 9.9565688962019 9.5142054576316 11.049458411551 10.228399883039 10.965680929528 10.751402030567 10.361847123077 5.2107441759041 8.4517270194116 12.368327201202 12.136182420354 10.712188365765 10.823584459308 12.388844861638 10.942682643192 10.141323401377 10.696044011504 10.775432260109 6.9085607373335 11.16541308675 10.87881778119 9.8179808983395 10.278320532382 10.994190695092 11.668494490912 9.6618802601255 10.90199870105 9.8795459782151 9.9215750370788 7.3483646929016 9.6405680026498 12.561230496445 8.7801596826874 10.711807274771 5.5842882396821 10.658939148422 10.403489643382 6.9409716855169 8.122662669609 11.285670249306 9.8095923000044 10.361609576655 9.6627318549858 7.7816051767606 10.654067663564 7.6321473409226 11.114703835369 5.5142815429508 10.103696182321 10.43277391289 9.7657672735246 10.540013499133 9.638992800825 11.059853517718 12.206812775836 11.00006166543 10.941237504744 8.205709423576 8.2489153635596 11.323156580211 9.2196313081355 11.651210819583 11.506950655626 10.180069405983 11.479079541452 10.208504455575 8.1220393629437 10.413175162426 10.589741667041 10.932496630627 11.180005502442 9.3442603953617 7.598278789921 11.647701919014 9.8459638052062 12.290355531412 13.129769444563 10.052263184528 11.967254922479 11.146259514004 10.652863608754 10.855271814957 11.531931481409 9.3564959315315 10.043934059546 9.5303078417674 12.122218240023 11.298918227135 11.62838170855 11.319172064382 12.064561971067 10.29725511705 12.6672955973 10.223275835785 10.562097293524 8.7481836239832 7.9868805553269 10.472438430401 10.165447245929 8.7063404430107 10.215497134144 9.6949662710541 11.12786863893 9.9175431423451 10.2253170263 9.5383415068319 13.998656975879 10.025293916632 11.932096860435 9.3228460906573 10.505578837433 7.8268806309863 11.816095741888 9.1567115573323 9.2597736568679 9.7438300437749 11.574966327646 9.0492349525885 9.1945611644928 11.698477364542 11.002351845531 10.26689227023 11.71051444267 10.871382565609 11.202940903831 8.1556410167181 11.016858754616 9.1444549625466 10.958602503428 9.782518945724 8.3712600365944 10.66655195649 9.0265108128253 11.92898875323 10.881915549375 13.431272770922 12.151046666117 9.9384309443076 7.4242798816007 9.7594016897247 8.3626362610784 11.397296597212 11.609292501904 9.3375098093012 11.623824965692 9.8307502490327 11.04587972709 11.152401590363 10.306219258707 9.4041408611842 9.0276069699083 12.763404348266 10.615478935756 10.333314025351 12.889158569773 10.956407730916 10.616398518641 6.31734832487 8.5012189342362 11.747343850277 9.6294015204319 12.057516599129 11.732396075294 7.3552105979358 9.1448961296639 10.645928843258 10.185521952489 11.127729363841 10.850644402241 9.3664236310365 10.171192023551 12.243556835005 10.79543828024 11.039677283793 7.3411820428581 7.1821143003938 12.048810536686 10.894377545124 11.671621667138 9.4950959032146 7.5553421741859 8.465142421396 6.1929607039988 9.6617208531908 7.3115490575398 9.8734946721154 10.080339562413 7.2008510901856 10.721373938986 10.126849066529 9.7090408894564 10.488112153905 9.5795854961958 10.621026499878 10.063343112916 10.768070128004 8.2383996908838 10.207719592174 10.147314483423 10.539134933243 10.939264499789 10.455268595909 10.919595840523 9.07151387681 9.8674934218336 9.6422417870123 9.721054497692 6.9552345443736 9.7644840608481 6.638337909246 9.5587567523418 10.308527478807 11.051175905957 10.769556652236 12.069418746202 9.5877955828914 10.79242148254 10.749236717163 9.6675886334435 8.8852815048954 11.825451492185 8.3034787708584 5.9081311045484 10.615776594378 10.484485933217 9.996189345295 11.17611257184 10.008265059002 7.1137484608387 10.521466719763 8.7203815935525 9.2792066064559 8.8379203103392 11.019173995656 10.376014946997 8.7213524256901 10.215826181218 9.8140556650264 8.5574467415356 8.9512362382481 9.470796425313 9.1078100719058 9.8208511591323 7.654837861395 10.173858849563 10.537102976454 9.3604327214843 11.389692953411 9.6686218581952 11.589334006917 7.7917469385985 9.8242916713922 9.3177383273515 10.913828476211 10.142682738636 9.6698264092938 11.6105016273 8.9162890891206 12.061873613688 9.6244454278654 9.6924559773008 9.4156800507402 10.171971025823 10.326260481954 9.9763207322796 11.298074638211 11.117629504671 10.901315776834 10.677640322059 10.549785012137 11.193590976709 8.3691314644587 11.041223071428 12.618849808813 11.591935930378 7.5718378046039 12.214676401114 10.447816694068 11.900975357109 11.456625621375 10.581658803431 9.409701767457 8.7237878534521 8.7916116089446 11.889152286412 9.8573693549965 10.502710754227 9.9443607901958 10.603790171864 11.146276688052 10.983481894784 8.8371676598334 11.491666438324 11.857385264087 10.443813933047 9.2967303948023 8.7993577785985 10.342472391138 11.455883467522 9.5513122933315 10.4850046823 9.762681804585 10.629039766855 9.619733722218 9.7871264695632 10.064683983461 8.7820412565147 10.881547940877 8.4822953658781 9.1572818968142 10.847250096451 9.0698449359524 10.049028973919 9.7414096324151 9.3327982090216 9.1403477132951 9.2311171662808 11.530912398498 7.6394874287933 7.5367054405552 5.5900398622716 7.8936640003282 8.3572254634699 8.7039903002036 10.092017914336 9.2354946516754 9.9252855890018 8.367271786566 10.809288381742 8.6966578269687 11.27106697492 6.5272353085954 7.947724102298 12.08447042791 11.49684378395 10.910588583436 9.8387313607048 10.626819656598 10.792634855903 10.119211791387 9.6241698056085 10.235376750403 7.2172865034078 9.8623982326296 6.8179650379256 10.29493593502 6.6303507908516 6.1961502207783 8.6264721284626 8.3319791293373 10.406142977334 9.7093586529568 6.6420375585049 7.4994228365163 9.0697778621018 10.645782044723 7.8874983144755 6.8527472390996 6.6417151917746 7.5837961339892 10.948742246509 11.788497993193 9.9037617375752 8.6896496436344 7.6405128203001 9.0706272811708 10.238841154585 8.5581289439505 11.510137752469 10.163740441868 7.8113768428389 6.3864141843677 9.5113374313088 9.6497857353784 11.408350581261 11.52241222871 10.27811512722 9.8018740090732 11.029776729217 7.4582052878842 12.541656792459 9.0514278815359 8.9233350941074 7.8139914652997 10.289927648736 8.9632738098473 11.034826873848 8.9990585102934 9.0551131306541 10.663748584147 9.7853284845346 11.250237172276 11.241438424482 10.089400049128 9.7642832982653 7.3427846573553 11.382733235944 7.8516947279631 10.061205434361 10.769881671903 10.142820015293 11.755719475782 9.4304810797884 10.116446048097 8.6248789369736 9.7766000174421 9.5055631379285 8.3313790045387 8.022907137697 6.7732373000246 8.8569931978778 6.6432802372623 10.710031387794 9.6446062862398 8.1080680501685 8.2389128475098 9.6041563193499 7.7211783503688 7.3260064679541 8.5476829208745 7.4148615173934 8.1273424776695 10.962353440524 9.8517619773898 9.1647483064167 8.6334898953913 8.5342786801241 6.3973932639584 8.7535592437825 5.5539123909441 9.1434259242117 6.1201921516771 8.2861705507809 10.589631144584 9.7988789361285 6.8063030339665 9.9916700423113 5.22426673334 10.557446841291 8.1286538751797 8.9279704556789 11.621616747971 11.117217007737 10.87412540797 8.9365006417202 6.0032824225141 4.7040792397947 8.3849015414963 9.9977641853289 8.0279227448984 9.7695533437946 7.8505879463326 10.102265525985 8.806004626111 9.4065785519029 8.8875964063585 5.831329578334 6.3674934120195 9.1343183950257 6.9032470562436 5.6374590729425 7.1674893286943 9.7055733832327 7.2223952888481 5.8640478885728 5.0129198561593 10.344363328928 8.6299242590679 9.6113455213931 8.6068103143429 6.3768781695388 8.4141239806415 6.4793238100356 6.7924275249479 10.801995032019 8.8060720428077 8.6891620308431 9.0328384944743 10.62778144474 7.752544272246 9.8128801193451 5.4677061817476 8.7923228441905 12.312945039802 11.269352879319 8.9102908298477 6.8937753812053 5.1995294111607 4.1962291575894 7.8889833736832 10.30886548428 7.8370271604882 7.4897390245813 6.3669400032755 7.7615621598346 8.6405057420282 10.570911867315 6.1780022575178 9.6660973852568 10.62631399457 4.5719641807283 9.1503876698173 11.690418263845 10.681237297041 6.3519967324544 8.4467775277538 9.3405132533761 7.4417770856086 6.7434526173965 5.8311675644234 10.273816689626 10.03094439684 5.8520010706247 8.4987640554379 8.9696890596399 6.9267852879389 6.1104508105538 5.4346353351852 9.9964090468452 8.9565214494822 7.2307279402144 8.2658731560563 8.1724389013091 8.3988636055447 8.9425503502058 8.1621386125035 7.9276845221264 10.158243922568 9.5045213535648 5.3545443441267 3.7210654857421 10.482145176432 6.1592322167261 11.323561275071 9.0963870497774 5.9959104274348 9.4384417662799 4.261919458238 7.3584208623624 3.6719594516774 4.6480141605841 9.4158735718573 5.9423167574309 9.6665320135758 5.6945768542733 10.093301221371 9.4607150207911 7.2544526085685 9.7072707772719 5.2706807692986 6.3744707678816 8.0381692351382 7.0131291148501 8.2115647627345 6.081052883497 7.6245869229751 9.5702116395614 5.5804746927179 5.055226914316 8.9532029714621 7.9591414452241 11.539952477197 7.7885653311271 10.812626181549 7.1710807615893 9.6726803107425 9.8638328568353 6.4736928394319 4.3533906842514 8.5042490890378 7.6207056305399 7.6687684604101 7.7919924577745 11.194395182446 9.7936959977494 5.4479579609389 9.3135418227999 10.188729068985 8.4758312866292 8.687692538949 7.8496038472146 8.3976778096851 7.4918924183825 4.3039420459789 8.64297648635 4.5470031519649 8.025585277128 8.9272228082552 9.3727884818984 6.6361403301277 8.3364528262123 9.1915464494759 8.7867187108611 8.360256613145 6.6961711866469 5.2927619978004 4.2267583213602 5.4580601468823 7.7761993629495 9.5156182984614 7.5589704258212 6.5084557552107 7.5779936548045 5.9767134862796 11.75830804605 5.9693091628427 10.903836851782 9.9717004329089 3.8546473071324 8.7454600790776 9.2524049636294 9.1517279891561 8.6457671081326 7.4774126933228 6.4702059976803 6.3501138563188 6.0809561878767 7.6928413785516 8.9746400680761 4.0303853258993 5.1746284632034 4.59646278669 5.8014502386877 5.110722264047 8.7814578380469 6.8001322650694 8.4808838423174 4.9435752861898 5.1601794484502 6.0542048320019 8.7637511769098 4.6932848042115 4.4450371661156 6.9686028797877 5.9806850794315 3.8366484446329 6.2594446218326 10.548205465957 9.57450326444 7.4631911000069 4.9011432900379 5.5325210426039 4.7194793589155 7.0527511756587 7.5613995411071 7.3777097894819 7.5100167465355 7.5038322458257 7.8916114873247 6.4978722937968 7.5201646645869 6.7466705183799 7.5746820117855 6.0490460606704 7.3134055031116 7.651035835489 6.5824990535004 7.1257170533531 6.9984879106432 7.0458050856199 7.3322340616654 7.3550655040547 6.7506368554964 7.1087775876257 4.3675193373848 5.7650700853532 9.7092656594756 4.544753029342 10.26888062648 7.3975144660392 6.9688030514554 6.8719740901212 7.836683327636 6.0462675502295 5.1518386321876 5.1137126319432 5.1987251089704 5.7093048665485 9.8274678076501 12.077724394054 10.715599898019 10.091086904312 5.4016227446797 3.5645134879523 5.9083474180936 6.3673590870667 6.8994869987753 5.9301642606569 6.2649714231268 5.3361876557866 6.533071389464 7.4703425408155 6.882353434342 6.8942866898397 6.7418844780512 6.9477737543253 6.3290671617156 5.5928627788243 6.9852883630296 6.9275131639333 4.7985940095976 3.4526572826023 3.1408628719017 4.7734463434863 4.1687717210061 6.863254519235 6.8189198113621 8.3837069675334 6.4687030015781 12.273363902684 11.53676733648 4.252125492942 4.6237209008648 9.2319673534221 5.8656485857946 4.0280015991019 4.1500553954663 5.6150770102982 7.4118098389536 11.158751953641 7.4582609296069 7.539906320446 5.9468749862299 5.7156659421474 11.086990325966 4.9976721342313 8.0257914489628 11.870294803069 5.8474663491832 4.5311838368984 9.2833819041702 9.3254960139888 5.4996712597007 4.9094450388364 4.6848718552123 6.8493949608582 3.6772650151686 5.4467212496114 3.6464025852053 3.5556818582567 4.1370599504692 10.206974215986 5.3848554046407 5.9008577608892 5.1151933223857 5.4338463762073 4.7439731632014 6.5318563404161 10.618204144356 3.8152715486442 6.5242098282651 3.2966680478696 4.1035307595915 5.4927139676895 4.6303520544598 3.8914455710959 4.2664028553044 4.4579815991744 4.4606954984802 5.4367004602282 3.9458913395611 9.6489770312629 5.4199035201196 3.8028825571601 4.1748528551617 5.0341669845495 4.9249424203468 8.1102552294785 7.7044600901721 8.9414063750572 8.7526658001788 7.3423922749168 8.1429266855404 6.4428083957279 7.0637878591134 8.4850177515825 7.9507248369099 5.7005672646385 6.7246432477305 6.4179135647329 8.4961904763243 7.2942158275115 3.4037637216698 5.3128157481314 6.064482954705 4.4631481286388 4.5129028992446 4.0919687809927 4.2146029248369 3.940859643438 4.9595591267389 3.8656666198042 4.747973026997 5.6500494547891 10.968717631519 4.6724343962461 5.5019409005283 5.5794191285079 10.757321621336 8.2017708620606 3.7639714129875 3.7095696889962 3.4269360518088 4.4932563466221 5.2322936101823 12.536461955456 3.7600810972811 4.3382300642394 4.6533395171169 3.2112997066379 4.4782051316106 5.5369954709982 4.9476064225526 4.8834578856321 4.2523337824498 5.1899439595995 4.7685338330047 3.9803488017416 5.3073920847964 3.4232312547004 3.9105510441603 4.6016157176221 4.1083901608956 3.2856688044122 3.7643942572561 3.4265736286427 3.6300853558918 3.5822196592877 3.5419141263314 3.5196828444024 4.7010820964369 4.2934371692741 5.4683908811095 5.8560668196127 3.7878271748112 3.3763487111238 3.2788145772091 4.3111497275369 3.3976574488318 3.463283977096 3.4326171778295 3.4432217098836 3.5320678847153 4.1398706588539 3.7066034858957 4.5861206662882 3.2714469092979 3.2110068999734 4.1518097584352 4.1118559463898 3.1872013014095 3.1679711671903 3.4372365017285 3.4705085104737 3.3812456603281 3.5004055913087 3.3183721250546 3.5176419912793 3.670883011304 3.3606264312411 3.9029732506775 3.4613384009437 3.4886451695573 3.251420648656 4.2528238916314 3.1981641351467 3.3261002257498 3.2903844309966 3.1567258051511 3.1380864958086 3.3021276876264 3.3083703084862 3.6025226536056 3.4326609506463 4.2211690178964 3.290271968344 3.8449085661565 3.1484978950463 3.2261069123641 3.6469332336113 3.8779251481804 3.2901786754884 3.2545759699311 3.1857882984123 4.8290504178582 3.7585381208139 3.8064914967908 3.7385721927921 3.3004042394739 3.2224002530645 3.1704615428316 3.2045238122164 4.0419627620031 3.2963060503236 3.343665849244 3.4485257304537 4.2891404537383 3.7458061233505 3.8639166441198 3.1436943790657 3.2185656526812 4.2906577764527 3.9597132273985 3.5356879268013 3.3969033273771 3.6908638215022 3.1536084108039 3.4820121165081 3.4588168885711 4.1875973680527 3.3522410113555 3.4306967957531 4.0118474661904 3.4070716087936 3.9981368698721 3.5310867340297 3.5113713627672 4.1901968923201 4.3589358324248 4.1115026593304 3.3954258451723 3.672605982442 3.2320048676176 3.170176015923 3.2436647121901 3.3112888141657 3.443678604714 4.0376695870252 3.838838794067 3.7496950172211 3.6827752150782 3.8929209027545 3.6808627047215 4.2492327173457 4.2810909494792 4.2281377155081 3.4326959318074 3.4009738758119 3.3416565616355 3.544353707 3.8307015711969 3.2321931676051 3.3242273597852 3.5903315570438 3.3934270827791 3.5539886997577 3.4364167733745 3.7391749775649 3.7887001274326 3.8618030420882 3.6990641377244 3.9988492699304 4.0725902613326 3.9521963234672 3.9269636758379 3.8607204096411 4.0335783376213 4.0652425925052 4.0365038331315 3.9823469219134 3.5487169201629 3.3579743016312 4.0962685942602 3.6532526245874 3.5224894021057 3.6933672530269 3.8051980967335 3.9893574306389 3.677495505634 3.8252056757993 4.0664980926937 3.9903329751145 4.005115524938 4.035974831108 3.7657975086625 4.0475031889213 3.998555269927 
SCALARS 200.00_0.39 double 1
LOOKUP_TABLE default