# vtk DataFile Version 3.0
d-2__ created by libgimli-v1.1.0
ASCII
DATASET UNSTRUCTURED_GRID
POINTS 570 double
14.5	0	0
14.25	0	0
14.386963504964	-0.201738469428	0
22.399299936458	-0.310870122736	0
22.129824335287	-0.229914148082	0
22.126320781198	-0.518791771445	0
8.472303742627	-0.591754876635	0
8.780507935475	-0.76092407121	0
8.82173151259	-0.349253271447	0
18.663262297679	-0.667179415955	0
18.934786529245	-0.453308328646	0
18.636898038907	-0.29588182328	0
4.016904362632	-0.85330676142	0
4.076038737616	-0.331410355179	0
3.713721571226	-0.470767763626	0
1.89953779852	-0.269343012166	0
1.633800503821	-0.203067612233	0
1.644492760828	-0.441295523531	0
4.368408037607	-0.250833874131	0
4.337474161742	-0.544420985055	0
4.67745607622	-0.378433532554	0
1.406172533733	-0.772361039307	0
1.913288206557	-1.218576310882	0
1.90687689783	-0.651895683444	0
2.5	0	0
2.25	0	0
2.347047126858	-0.185539804102	0
1.374000926997	-0.300418771701	0
1.25	0	0
1.114902662369	-0.201591505098	0
1.067401015567	-0.470108640981	0
5.75	0	0
5.699780065382	-0.324747799653	0
5.924584257371	-0.172748359932	0
0.883560935405	-0.231136840652	0
1	0	0
9	0	0
9.117836368049	-0.253904480787	0
2.625577516194	-0.346770599322	0
17.859079774019	-0.943547525024	0
17.535029634209	-1.703182852412	0
18.338018094476	-1.366069799339	0
19.932263871771	-0.826489183604	0
19.881635677668	-0.346204516721	0
19.622287080959	-0.573770479943	0
1.5	0	0
1.75	0	0
23.25	0	0
23	0	0
23.109690227386	-0.220340974338	0
2.75	0	0
2.142562771237	-0.172460438312	0
2	0	0
23.332392704446	-0.202507275941	0
23.5	0	0
19	0	0
18.75	0	0
18.888143078348	-0.195773419804	0
2.90152418742	-0.185685383897	0
7.612175045312	-0.180627982114	0
7.527150943175	-0.401430797998	0
7.881917737402	-0.30462800112	0
25.630635194756	-0.512020961038	0
25.243766894324	-0.80097755811	0
25.758031115142	-0.952821630144	0
3	0	0
28.84859809239	-0.201276387394	0
29	0	0
28.75	0	0
4	0	0
3.835807353334	-0.199536243303	0
3.106904732949	-0.178783649348	0
29.25	0	0
29.092446172194	-0.305987136665	0
13.5	0	0
13.667851890428	-0.185102765244	0
13.75	0	0
3.75	0	0
14.407363653886	-0.441423674912	0
14.125469935998	-0.279652141152	0
4.25	0	0
5.061980176718	-0.407989246181	0
5.335512032876	-0.269401530321	0
5.113979852892	-0.173834924157	0
11.882046000841	-0.812345557852	0
12.478640631525	-1.146569360669	0
12.244190771573	-0.565936619511	0
3.633270844505	-0.195395238442	0
14	0	0
18.378272976509	-0.514977451159	0
5.5	0	0
9.619519097921	-1.16461851757	0
10.030576753886	-1.587265312651	0
9.961661342999	-1.070235523667	0
5.25	0	0
5	0	0
13.157975569138	-0.830425793913	0
13.83833027638	-1.238601004239	0
13.671302359608	-0.710707966059	0
11.325917093147	-0.8366783502	0
11.612143285947	-0.506264798476	0
6	0	0
7	0	0
6.83842404292	-0.188923754932	0
7.11236984822	-0.391746146843	0
6.631875629497	-0.169178192832	0
6.75	0	0
3.21002197083	-0.595267231049	0
3.445510026908	-0.608065324465	0
3.362318141622	-0.306501255187	0
6.120159502895	-0.164221934939	0
4.538525595924	-0.906226152762	0
13.233775457127	-1.737244787017	0
4.5	0	0
16.138065841822	-0.472802517973	0
16.126746690205	-0.221608117926	0
15.859319180798	-0.326402762318	0
26.080401003391	-0.227842452866	0
26.25	0	0
26	0	0
3.019224421113	-0.401469974918	0
8.234901607028	-0.35771789179	0
8.518285578354	-0.242327591839	0
8.328777073389	-0.153008859619	0
7.25	0	0
7.400656881666	-0.195280611572	0
7.5	0	0
5.385509485898	-0.709154879541	0
5.948697127931	-0.745234910621	0
8.75	0	0
8.5	0	0
8.25	0	0
2.214249105773	-0.404278959534	0
2.896561357202	-0.792481120253	0
9.25	0	0
4.920911116561	-0.192028847294	0
9.651670336652	-0.200847798694	0
9.849824537955	-0.19917205686	0
9.75	0	0
10.095049354068	-0.315754204277	0
10	0	0
3.25	0	0
6.738406513564	-0.710129601907	0
7.121614580011	-0.943026074581	0
11.345829942703	-0.314788260019	0
11.25	0	0
11.104427225455	-0.188863495516	0
6.052412255932	-0.372556729023	0
6.373371846535	-0.274163514827	0
10.25	0	0
10.380281579003	-0.241092027437	0
10.5	0	0
10.75	0	0
10.909079077441	-0.189427130481	0
11	0	0
6.25	0	0
6.5	0	0
4.75	0	0
3.5	0	0
10.672815698565	-0.318467932684	0
10.772487906066	-0.787092734739	0
11.020900486567	-0.439266778492	0
8	0	0
7.75	0	0
11.5	0	0
11.619450354737	-0.231443672836	0
11.75	0	0
8.139317726831	-0.163309591658	0
12.25	0	0
12.158949464947	-0.235415698299	0
12.412455385193	-0.275030800337	0
12.929165084344	-0.221336108042	0
12.686337592177	-0.258437422252	0
12.900449535554	-0.462768612232	0
12.5	0	0
9.405755833308	-0.325979504745	0
9.111697192308	-0.594170467817	0
9.457257345083	-0.753685223931	0
18.101369157139	-0.618560521812	0
18.336839281097	-0.861122419318	0
10.385948631267	-0.570640149046	0
9.5	0	0
13.411260455969	-0.342646276848	0
12.643108055516	-0.590179775368	0
13.137744715761	-0.195204172124	0
13	0	0
21.25	0	0
21.358341816502	-0.326561417551	0
21.5	0	0
13.816492716597	-0.40394453634	0
20.25	0	0
20.423452336785	-0.313445603959	0
20.5	0	0
17.789350393153	-0.390447709085	0
17.987794057246	-0.401472255242	0
17.881276545163	-0.206424156589	0
19.564465692234	-0.270867872644	0
19.290725118801	-0.49926248604	0
16.392319441256	-0.29915360323	0
19.443730892406	-0.923508713428	0
20.457987075478	-0.803203365193	0
20.167450719332	-0.505159975143	0
0.103762538371	-0.253013629949	0
0.267057015134	-0.483604909932	0
0.374713194419	-0.2320817565	0
13.25	0	0
17.415572543912	-0.230682214253	0
17.5	0	0
17.25	0	0
18.108153655084	-0.208141099276	0
18.25	0	0
18	0	0
15.75	0	0
15.544586046819	-0.246453491997	0
15.122708481244	-0.193620038745	0
15.25	0	0
15	0	0
19.75	0	0
24.149237782749	-0.319013340846	0
23.842766599446	-0.577371105011	0
24.183995039966	-0.73159476451	0
13.871646321742	-0.17394291424	0
23.862588150518	-0.245417872715	0
16.84024277193	-0.203626765466	0
16.704049384397	-0.435508179396	0
17.112673188265	-0.38804641709	0
24.75	0	0
24.832880292394	-0.290571430318	0
25	0	0
16.40158555625	-0.755912194683	0
16.850299990829	-0.757941865332	0
17.75	0	0
23.567455674596	-0.325197491724	0
16.25	0	0
16	0	0
22.645812614293	-0.197864648876	0
22.75	0	0
22.5	0	0
16.75	0	0
17	0	0
24	0	0
26.914424714815	-0.337869958787	0
26.621963281699	-0.624626679172	0
26.977877660759	-0.778408201088	0
26.622424322919	-0.264588309935	0
19.34462271879	-0.199329831305	0
19.25	0	0
19.118057075065	-0.225686869553	0
19.5	0	0
26.75	0	0
27	0	0
27.5	0	0
27.604422363523	-0.298869962794	0
27.75	0	0
17.650384190064	-0.227839036584	0
18.343198956448	-0.236734208617	0
18.5	0	0
24.25	0	0
20.143897114391	-0.233773711865	0
25.5	0	0
25.25	0	0
25.344389320279	-0.31693710653	0
21.059546193318	-0.24845941382	0
20	0	0
25.842927934822	-0.248287716678	0
25.75	0	0
25.613904645132	-0.216025146631	0
21	0	0
11.763551406169	-1.481607093928	0
30.981104050195	-0.5526690913	0
30.873880294509	-0.217692518774	0
30.706626759758	-0.34945139905	0
20.75	0	0
20.85240828135	-0.178025243856	0
23.75	0	0
20.66289882074	-0.189089155251	0
30.204950808504	-0.791758966623	0
30.715535843381	-1.149995259266	0
30.543724897762	-0.572259098027	0
30	0	0
30.180216671806	-0.343473673313	0
30.25	0	0
23.229584388362	-0.458653998547	0
29.5	0	0
29.623391954444	-0.322069028408	0
29.75	0	0
21.618913855927	-0.233585823579	0
21.75	0	0
29.348490380579	-0.521100538161	0
29.36294710412	-0.230601226356	0
22	0	0
22.25	0	0
28.25	0	0
28	0	0
28.129259193923	-0.314252106503	0
28.44374413871	-0.484576386004	0
28.100199615755	-0.812038297775	0
28.649230646972	-0.871769248311	0
28.618403654115	-0.227691192115	0
28.5	0	0
28.387848605749	-0.205892081491	0
29.054768525933	-0.708603081552	0
29.344906532636	-0.846887322836	0
26.327430876245	-0.35930637997	0
10.349120516034	-1.04150119828	0
10.894920134778	-1.514321070539	0
24.59640839418	-0.191760546865	0
12.75	0	0
24.5	0	0
13.102881121377	-0.411296235356	0
25.099388239946	-0.214879887129	0
25.97986022697	-0.52841375324	0
24.398993403151	-0.196312410538	0
17.860840746535	-0.577367743328	0
17.566481510048	-0.529340016102	0
26.5	0	0
16.637148248735	-0.188015807345	0
18.183918302467	-0.396443618316	0
27.159348252167	-0.205297590358	0
27.357530053515	-0.198815038154	0
27.25	0	0
15.060354649709	-1.112587998155	0
15.51532665618	-1.043792149387	0
15.178150912169	-0.713100616689	0
10.051363365948	-0.719159376333	0
14.661248691948	-0.27865166374	0
14.75	0	0
27.868836823455	-0.217301839861	0
31	0	0
30.75	0	0
-0.020273477909	-1.415389842481	0
1.054972770973	-1.487485199502	0
0.512583677021	-1.0438154777	0
0.75	0	0
2.361419414365	-0.794513604096	0
29.890297721653	-0.2433406165	0
30.473599299501	-0.238575611274	0
30.5	0	0
30.660802173874	-0.161931182737	0
28.783812899585	-0.467926883932	0
4.937022539393	-0.72440615077	0
6.696914540879	-0.380672503721	0
7.434272221796	-0.695675918868	0
15.339606453815	-0.166204802571	0
15.281953315711	-0.388999642276	0
11.893544445085	-0.335972898148	0
12	0	0
9.753796445798	-0.478866225926	0
7.720012958977	-0.638314519759	0
21.871398197179	-0.313006985103	0
21.615176662754	-0.521922347305	0
21.856785525528	-0.665128848631	0
20.792152536902	-0.448319093295	0
21.109577821412	-0.527879642114	0
21.360297691811	-0.734200004244	0
15.547854961707	-0.580173571081	0
24.496861814148	-0.467031445896	0
25.067351422649	-0.463427753535	0
24.81263825963	-0.684738154192	0
22.865620821195	-0.218348593093	0
23.443705587002	-0.773171720633	0
27.277617447467	-0.489224417775	0
27.863714790534	-0.471681393437	0
26.239117668995	-0.863279739365	0
29.896797054636	-0.547765129844	0
29.612773839625	-0.699757135752	0
29.867172666547	-0.87444432816	0
29.610354212963	-1.521444655905	0
29.59548165142	-1.071765512911	0
29.115129171034	-1.220660174798	0
31.345359428525	-0.458952144926	0
31.144859415042	-0.241304201582	0
15.919565295974	-0.746550096707	0
16.063006820294	-1.289595303187	0
16.5	0	0
14.900855313538	-0.178071167744	0
14.161016743654	-0.72559708689	0
19.011498044983	-0.834202892304	0
16.760433281999	-1.263698818643	0
17.280361389946	-0.931704507314	0
-0.627742252535	-0.296285438777	0
-1	0	0
-1	-0.5	0
0.625738545692	-0.228405936136	0
0.5	0	0
3.313957665883	-0.865581185485	0
3.619156095452	-0.800599314657	0
[...]
CELL_DATA 986
SCALARS 160.00_0.23 double 1
LOOKUP_TABLE default
11.009254598172 9.6555088884349 8.8963800424633 8.6303346902706 7.7137576243378 9.8325906621622 8.9794103014804 6.5148571454777 11.144101031107 10.098245672862 9.2663977439374 10.813739799041 9.7138338744859 10.789948244921 10.934131347401 10.403248056597 5.4030522373078 8.5922817071083 10.957681615685 12.053789539941 10.811443494443 10.879334443013 11.762318166583 10.41068790633 10.345240685373 10.533202382469 10.441129098253 6.8593031088511 10.714109744033 10.048103860009 9.368895848367 10.077490471368 10.812126578939 10.973679841323 8.9970490169166 10.6460395907 10.238171512852 9.7830858487566 7.1929692039529 9.0567887521921 12.037287294484 8.4854178373473 10.58236913033 5.7883039086036 10.090558549458 9.9113570964059 7.4829303299815 8.232176910683 10.836097207862 10.343078430932 9.9264348373056 9.0426234982083 7.6623839879079 10.390630611637 7.7611258965723 11.177292378318 5.7329125999693 10.800332368435 10.290753455357 9.2353980679027 10.706046464239 9.5849590072318 10.557042309367 11.521400276545 11.008422643367 10.856832589657 8.3398536337979 8.1681447517451 11.023301099334 9.073172874112 11.291133514113 10.448124365698 10.458323594732 11.036657980344 10.430155559335 8.2511562389159 10.299624092231 10.268216137441 11.058121551919 10.863527028782 9.3616954309293 7.6679118982144 10.904068950539 9.6198870838184 12.171742636821 12.488928952499 10.019804036124 11.61988430705 10.914541736239 10.833446390418 9.9273620190744 11.052165442747 8.9510384446322 10.091651488109 9.6758388149993 11.381497888166 11.635960145968 11.384886154776 10.343267652899 10.903123632595 10.15932065539 12.023952402425 10.068960211407 10.310687504967 8.582653957909 7.807952705862 10.250364143938 9.4042646245825 9.2516917816642 9.8132677176261 9.3240214818109 10.895046683697 9.8105539042202 9.9723817696624 10.030701281518 12.684086839191 9.7693294033948 11.259138782131 9.3868888906817 10.399852586055 7.9953823196642 11.643505522769 8.977870001062 8.7393715530371 9.5063995283699 10.819024813183 8.9634551999852 8.8537373145326 11.496766454472 10.286812411865 9.7817733441985 11.25108962423 10.885423251551 10.761656406917 8.1565109796472 10.123144534785 9.3220657830908 10.725180813437 10.414708564454 8.570524207645 10.509006165149 9.2109364536296 11.431937903157 9.9947024725387 12.893768427143 11.653827045069 10.317794463212 7.5018150267518 9.6034962846406 8.4144804096215 10.953048452511 11.37871279706 9.566302231265 10.889373770336 10.328125188218 10.65757300316 10.641959509266 9.8472922798265 9.2469119223145 9.1220659630184 11.978909770673 10.634386622349 10.15418135966 12.401036213921 10.484471466098 10.527291368241 6.5272106914418 8.5554077002761 12.254431431749 10.126995941292 11.829132611898 11.072423108824 7.3097680761612 8.7102267651584 10.372525160753 9.8799533549627 12.12321826494 11.133387653041 9.032038988901 9.8202141281501 11.30874851672 10.479396597259 10.784282436785 7.2207818738351 7.4184335137654 11.735783845903 10.510726892691 11.037611841365 9.1740296908595 7.3450292382527 8.4630360092713 6.5516465502928 10.200159563048 7.2539014246661 10.34374172198 10.913945114549 7.1178871490849 11.411901667192 10.707310536017 9.8984611140196 10.55174573081 9.3679273492646 10.406809141246 10.100370478614 10.606203610171 8.1896625883096 10.322998869533 9.9202587707185 10.8369938474 10.283348041913 9.7308953048973 10.630115747324 9.0374964386572 9.4176123076604 9.5406355576312 9.5278510144903 7.0596552208167 9.8547544779373 6.790489765185 9.5942174491788 10.087391314601 10.789349630417 10.501168994294 12.481542900359 9.8652741682248 10.879874355139 10.252526119452 9.9020695614663 8.8589398399262 10.912929688843 8.7123626180636 5.9306866539693 10.320911912463 10.208026260051 9.2042446473069 10.326009368268 9.6119168122226 7.4393508613697 10.567061156788 8.9477048240679 8.9574033509956 8.7434546265995 10.995215316003 9.9440365383365 9.4691693255562 10.148024688864 9.295146455267 9.0854229694345 9.0225687800293 9.0969165944289 8.6609202357416 9.7232442221916 7.7083188642659 9.6718626951084 10.228964123014 8.8300518139515 10.911032908697 9.9841073361173 10.879773198733 8.0494687471365 9.6790038455094 9.1447504645541 10.53853654486 9.97452261689 9.2649500442434 10.911854007048 9.0232182583997 11.141439878947 8.8822045154245 9.1531186674871 9.5050759383611 10.099438482257 10.051906378513 9.9315567021825 10.258169179409 10.447223245023 10.228471347638 10.097161958633 10.492925857436 10.86084868257 8.7145594477078 11.028063721297 11.399418694503 11.317945122874 7.6877900219634 11.708566688778 10.216166055423 11.354664512798 11.735758837687 10.38263274211 9.4340339219577 8.7971756931322 8.6308609329726 11.543721572045 10.012235212725 11.293008201259 9.9997582174406 11.310688687762 11.671646077438 11.014516475532 8.6423058137396 11.671652980963 11.517820447703 10.256300860546 8.9889488083441 8.4817811800676 10.337740084979 11.173384996881 9.6281127764882 10.223322655639 9.6742901186266 10.512025420866 9.2410733818181 9.7592080515037 9.7930579414497 8.6392444552242 10.171391139095 8.3019337716295 9.2096992621343 10.085889210598 9.1108286412236 9.9477713188172 9.6587581790812 9.3481132825962 9.0457053725717 9.1372338784925 11.120996733456 7.5555310203988 7.4039811294082 5.5878368349804 7.7050909841514 8.1643833523695 8.9881164646177 9.9533637675012 9.0860632227002 9.5030874430449 8.2707769925973 10.728112858738 8.3921491127919 10.581587921533 6.6943601708689 7.8861866959758 11.861476909767 11.285345063772 10.762202410716 10.054584951701 10.474801964523 10.682661080786 10.161060475375 9.200567420923 10.104743135801 7.3579503043691 9.472479652395 7.0495228075583 9.7401978201738 6.9362065295515 6.4976569432055 8.3649951311536 8.3599998541374 9.8509573655191 9.1785460311313 6.6383518936694 7.8403520099939 9.1875820459179 10.159591844811 7.8434197015576 6.9591487097532 6.736853852908 7.8626786819254 10.649885649468 11.061335077187 9.3568145905184 8.4158633930918 7.5586380590533 8.8265471734083 10.007262316482 8.4233059890795 10.739482519876 10.024071617921 7.717763826274 6.3000497729587 9.1043859801709 9.8139228345971 10.398743722409 11.270496253417 10.46270016481 9.4681147974594 10.815864840195 7.6945067240173 11.795551812466 9.1688856724366 8.8106707603365 7.6476540590361 9.9811134158224 8.7695545067442 10.703237846236 8.7668023935376 9.1482494323685 10.210880418994 9.6121532085634 11.019359152055 10.924204143514 9.6696129427359 9.5720936361272 7.2562804593483 11.818988242847 7.5744234730059 9.796968706064 10.396311590435 9.4847012579024 11.260159627484 9.479158176654 9.567606956322 8.5146896156934 9.6545417857949 9.2642634241692 8.2385370006757 7.9712929098793 6.8745499725631 8.7174669514903 6.606354143633 10.016270386754 9.4521523467727 8.1384807466392 8.2369180703798 9.7136294166541 7.8126900189316 7.295528427337 8.2600148581007 7.3097809805218 7.9151504429462 10.854005566053 9.703488812647 9.4773638496989 8.261019544639 8.4712505274736 6.3449118845905 8.8194345536141 5.5629898697354 9.0425353876715 6.1756572926024 8.2993598894464 10.375263804362 9.5563909036878 6.8293306489806 9.9591664582419 5.4397403859972 10.689349259471 8.0236909452851 8.7204708741473 11.352808754463 10.871319975689 10.694027569354 8.889186827744 6.1811767616579 4.9677716177299 8.4931539858553 10.194735858617 8.3950983586908 9.2840634599629 7.854469667279 9.4203614988457 8.5719435100141 8.8213000879716 8.6827936166228 5.9111054626147 6.6989192823525 8.6603900452617 6.8188127986202 5.8353655640414 7.0557248293801 9.5961813287825 7.4471699771508 5.9584143857485 5.1977514770347 10.25701666366 8.7860019734056 9.0862491077781 8.4209302873729 6.5177400564974 8.1955107443485 6.6383557276966 6.8440857473633 10.338762265328 8.957247847703 8.4570827375637 8.9452818572695 10.439634041296 7.8084791859334 9.4531645321285 5.7263022063227 8.8351861939062 11.581289748453 11.039773475586 8.6108509400833 6.9642932248265 5.4768039837734 4.4563611501745 7.8163885352155 9.976663601722 7.7593564095623 7.6254239131974 6.4805379539125 7.6012090903734 8.314989274893 10.446458599208 6.09727382105 9.4883327123222 10.367810625237 4.7896461541326 8.9789263219361 11.71868531714 10.080467036927 6.3378810951396 8.3288348727641 9.2065886779071 7.3427511405813 6.7267778894232 5.856508826427 10.109206441394 9.6853673640974 5.982827984003 8.3114553385934 9.0605243577613 7.0034727501366 6.1723029488511 5.5782431413969 9.7215798624818 8.7539461351312 7.0338920491528 8.1855936505431 7.8354590760428 8.1402467824497 9.1782546657228 8.1017268306632 7.6086621638507 9.8442924291148 9.1778206148934 5.6132428557094 3.9590175514497 10.01099562186 6.6213674094807 10.563100759049 9.2056372875973 6.1967294457484 9.5637622069332 4.4586574589033 7.4889631859519 3.9321426393128 4.9128056234776 9.2014357817269 6.2487892234368 9.6658328228398 6.01955951945 9.5268811939049 8.9524802455458 7.0956339897202 9.2103861045855 5.5947567837625 6.6504338549994 7.7956144532328 7.0057423239437 8.3773345457085 6.3862529068626 7.8955774582101 9.5394216111354 5.923405606732 5.348507222337 8.5844148923475 7.8259518632631 11.002316223529 7.7768327044181 10.347113270907 7.7169835337465 9.6531883022013 9.8719149654847 6.7392998512995 4.5781350274907 8.3783149999525 7.3801647938643 7.5584672650773 7.6180612816219 11.30582744402 9.6500995303124 5.7870876836332 9.2485555952481 9.7980103182417 8.3479650042032 8.5575501307546 7.7329194409141 8.2742027711546 7.460923348491 4.5852749723481 8.6677292756034 4.8369747609863 8.2451741993437 8.60407467837 9.2352092866089 6.685038428431 8.1784034391484 8.7663560750013 8.4026751316675 7.9949253190964 6.7870605506463 5.4792971219626 4.4636893576692 5.6718772166864 7.9449646315665 9.5348825030022 7.856446230931 6.878324004956 7.5411986241473 6.1478312281772 11.432849345357 6.0272127728632 10.752548386481 9.3781154212414 4.143646839447 8.9574571883318 9.0849389673714 8.9645362413565 8.3953053510648 7.3884480700343 6.4303539764621 6.3204373108923 6.1758098683612 7.4950971029857 8.8454754960435 4.3115746178257 5.4521505381278 4.8367053583436 6.0434851107241 5.3603447151291 9.2960819598007 6.7861761229922 8.5449484860952 5.3110542346668 5.4773673211709 6.1403852503382 8.5953999794806 4.8148296942602 4.7235087911424 7.3195506295688 6.065298024375 4.1062096817786 6.1736346195124 10.231913537752 9.5465795871401 7.3739910913719 5.0209047603082 5.672057624309 4.8490157782648 6.8906163249042 7.3565948136309 7.2269335314032 7.4687839725588 7.2565807723104 7.6292017064346 6.4798751184718 7.2808818679569 6.6917367315037 7.3451660608935 6.0424928226817 7.1359594959755 7.380289814253 6.4992668501324 6.9531512012517 6.8542460763505 6.8835340127048 7.1213618996904 7.1360613015033 6.6401976406928 6.9350496960748 4.5419923009679 6.0402217866084 9.1062380942558 4.7628952718036 10.209093651896 7.1757747236799 6.8232247096684 6.7119715631758 7.6818715544391 6.0708469972928 5.2324895318867 5.2333967809814 5.2933999177921 5.7085565992312 9.9291108362605 11.836433801104 10.600491210761 9.8528331950092 5.4614583391298 3.7809674081224 6.0097861318373 6.482385813621 6.8884468755517 5.9564945726239 6.3569308907412 5.4144743492531 6.4348992833515 7.3798240364112 6.7493890146502 6.7870959237547 6.610567952392 6.8743698064919 6.2446412765641 5.6396405873067 6.8343930919985 6.7869997363473 5.0880377470649 3.6843117808369 3.4163979438122 4.8920449952455 4.4493256104484 7.1740631950467 6.7091530693205 8.2251986360238 6.8687769902988 11.525846801547 11.139072049528 4.4773348532398 4.9616665145101 8.9371443357609 5.8695591956259 4.2379908798216 4.3887337842374 5.6789077055813 7.5223866877419 10.9025970181 7.5016573023275 7.7879695876649 6.0874102175245 5.9537109553903 10.978747433567 5.3539746354075 8.0509073276055 11.899228136171 6.0541415825133 4.6616591480186 8.8943851209716 8.8013042742851 5.8132239038133 5.1431808279568 4.9575486007057 7.132887165344 3.8490003483938 5.7139643539694 3.8932823118267 3.809328894323 4.4432299489605 9.8920356392231 5.4642125807585 5.9213944796252 5.2200501865824 5.4937482946566 4.9233959208291 6.4662393079777 10.253424246731 4.03136276537 6.7820460638549 3.5344478218131 4.3652699382062 5.5233175435255 4.8160385469367 4.1005180979273 4.4119143284093 4.7800650152546 4.7041421581006 5.6537680706478 4.1827189853655 9.3955159529535 5.5878249025283 4.0718226738219 4.4719069910719 5.3236432584015 5.1996208624284 7.802697053471 7.4754996053116 8.9529668156914 8.4271065610365 7.212822737848 7.9413024043324 6.3906167500031 7.0485382157204 8.4201465709948 7.876780593396 5.798391599558 6.6885030217104 6.3848506684514 8.4917477919722 7.3356649695768 3.6578220378104 5.3576973334477 6.0636247268612 4.7456844800952 4.7849870233963 4.2861881219241 4.3919307363812 4.1289009579986 5.0230434076704 4.1441792296438 4.836689536927 5.6820353525155 11.094979049043 4.8236809905592 5.8824080282581 5.577451436417 10.481462666485 8.1677975166471 4.0406951265115 3.9357307573036 3.6986818630688 4.8193641026598 5.3256643782066 11.930782085656 3.980697010266 4.5318033462061 4.8873362452474 3.4344461054322 4.6246756231117 5.6761287043797 5.0753696792659 5.0073894076602 4.4274956745478 5.2779015012511 4.8608303035478 4.1544401684289 5.471307374002 3.6862774512159 4.1727798339972 4.9472352302412 4.269167025506 3.5399826376514 4.0036459350637 3.6758073683033 3.8700737709309 3.8192044246132 3.7965834755618 3.7910632900456 4.8997585909518 4.590128900902 5.7667070438812 6.0767958231657 4.0182219594277 3.637924472444 3.5397137774366 4.4679478848615 3.6221089712569 3.7120608612435 3.6911801109486 3.6995622549261 3.7821907173805 4.2963333562595 3.9111972046579 4.7249907692687 3.5190066717252 3.4106218558362 4.449651212692 4.3535785871742 3.4641735806928 3.4426907038556 3.6955062485987 3.7192056188699 3.6238600911548 3.7348172674937 3.5825305310649 3.7612681926311 3.8835975780076 3.6006425692123 4.1636420457594 3.7092342826246 3.6903676405817 3.5244416317313 4.411814175914 3.4326813449424 3.5437773106366 3.5447318191131 3.4242497244035 3.4066658260023 3.5619092499712 3.5528157494268 3.8180308274068 3.6554610286237 4.4094311194023 3.5207902693334 4.1285523737511 3.3757469613935 3.4609579427447 3.8733378466839 4.0605849079447 3.4902405970913 3.4640923180025 3.408937638423 4.9483909219406 3.980178692108 3.9754931845117 3.935513998473 3.5095861402637 3.4697611225207 3.4276766885601 3.4632828818065 4.2194656595612 3.5394601985471 3.5320901516969 3.6344366106164 4.4441937958185 3.9489471966997 4.0389477812159 3.3615985087357 3.4640642929511 4.437542255093 4.1198003016167 3.7021989376461 3.6047820615356 3.8596091175822 3.3679984449887 3.6669256214203 3.6885170105069 4.3516355155526 3.5456190921428 3.623552316005 4.1654061110559 3.5963917522649 4.1538424839521 3.7087304955742 3.6936383654871 4.3566699267307 4.5138533768932 4.2789683550445 3.6130758259234 3.8600826660832 3.4845048821462 3.4288924183509 3.4458169452492 3.5164356173607 3.6335316637817 4.1970635576202 4.003951728083 3.9222199330479 3.8899742176627 4.078280595643 3.8428112440687 4.4059579965943 4.4257187310561 4.3841089065722 3.6220542472799 3.584161959159 3.5321410592459 3.7286045719049 3.9982211891763 3.4313704293442 3.5417467771357 3.8019017246932 3.5795823770831 3.7299323887228 3.6244644041328 3.9054147112714 3.9526694264123 4.0247418550987 3.8704613789773 4.1547901753105 4.2237035803738 4.1086832407409 4.0841539034895 4.0220062266825 4.186857374405 4.2164419546923 4.1909324003823 4.1405815324934 3.7618335746441 3.5951916211032 4.2561271837549 3.8232265706762 3.6872615902309 3.8559144175165 3.961975517511 4.1491069634629 3.8521570830316 3.9940335564494 4.2212167973426 4.1428647890041 4.1687374644067 4.18809126978 3.9518697249622 4.2043245443625 4.1547797381063 
SCALARS 20.00_0.13 double 1
LOOKUP_TABLE default