# vtk DataFile Version 3.0
d-2__ created by libgimli-v1.1.0
ASCII
DATASET UNSTRUCTURED_GRID
POINTS 570 double
14.5	0	0
14.25	0	0
14.386963504964	-0.201738469428	0
22.399299936458	-0.310870122736	0
22.129824335287	-0.229914148082	0
22.126320781198	-0.518791771445	0
8.472303742627	-0.591754876635	0
8.780507935475	-0.76092407121	0
8.82173151259	-0.349253271447	0
18.663262297679	-0.667179415955	0
18.934786529245	-0.453308328646	0
18.636898038907	-0.29588182328	0
4.016904362632	-0.85330676142	0
4.076038737616	-0.331410355179	0
3.713721571226	-0.470767763626	0
1.89953779852	-0.269343012166	0
1.633800503821	-0.203067612233	0
1.644492760828	-0.441295523531	0
4.368408037607	-0.250833874131	0
4.337474161742	-0.544420985055	0
4.67745607622	-0.378433532554	0
1.406172533733	-0.772361039307	0
1.913288206557	-1.218576310882	0
1.90687689783	-0.651895683444	0
2.5	0	0
2.25	0	0
2.347047126858	-0.185539804102	0
1.374000926997	-0.300418771701	0
1.25	0	0
1.114902662369	-0.201591505098	0
1.067401015567	-0.470108640981	0
5.75	0	0
5.699780065382	-0.324747799653	0
5.924584257371	-0.172748359932	0
0.883560935405	-0.231136840652	0
1	0	0
9	0	0
9.117836368049	-0.253904480787	0
2.625577516194	-0.346770599322	0
17.859079774019	-0.943547525024	0
17.535029634209	-1.703182852412	0
18.338018094476	-1.366069799339	0
19.932263871771	-0.826489183604	0
19.881635677668	-0.346204516721	0
19.622287080959	-0.573770479943	0
1.5	0	0
1.75	0	0
23.25	0	0
23	0	0
23.109690227386	-0.220340974338	0
2.75	0	0
2.142562771237	-0.172460438312	0
2	0	0
23.332392704446	-0.202507275941	0
23.5	0	0
19	0	0
18.75	0	0
18.888143078348	-0.195773419804	0
2.90152418742	-0.185685383897	0
7.612175045312	-0.180627982114	0
7.527150943175	-0.401430797998	0
7.881917737402	-0.30462800112	0
25.630635194756	-0.512020961038	0
25.243766894324	-0.80097755811	0
25.758031115142	-0.952821630144	0
3	0	0
28.84859809239	-0.201276387394	0
29	0	0
28.75	0	0
4	0	0
3.835807353334	-0.199536243303	0
3.106904732949	-0.178783649348	0
29.25	0	0
29.092446172194	-0.305987136665	0
13.5	0	0
13.667851890428	-0.185102765244	0
13.75	0	0
3.75	0	0
14.407363653886	-0.441423674912	0
14.125469935998	-0.279652141152	0
4.25	0	0
5.061980176718	-0.407989246181	0
5.335512032876	-0.269401530321	0
5.113979852892	-0.173834924157	0
11.882046000841	-0.812345557852	0
12.478640631525	-1.146569360669	0
12.244190771573	-0.565936619511	0
3.633270844505	-0.195395238442	0
14	0	0
18.378272976509	-0.514977451159	0
5.5	0	0
9.619519097921	-1.16461851757	0
10.030576753886	-1.587265312651	0
9.961661342999	-1.070235523667	0
5.25	0	0
5	0	0
13.157975569138	-0.830425793913	0
13.83833027638	-1.238601004239	0
13.671302359608	-0.710707966059	0
11.325917093147	-0.8366783502	0
11.612143285947	-0.506264798476	0
6	0	0
7	0	0
6.83842404292	-0.188923754932	0
7.11236984822	-0.391746146843	0
6.631875629497	-0.169178192832	0
6.75	0	0
3.21002197083	-0.595267231049	0
3.445510026908	-0.608065324465	0
3.362318141622	-0.306501255187	0
6.120159502895	-0.164221934939	0
4.538525595924	-0.906226152762	0
13.233775457127	-1.737244787017	0
4.5	0	0
16.138065841822	-0.472802517973	0
16.126746690205	-0.221608117926	0
15.859319180798	-0.326402762318	0
26.080401003391	-0.227842452866	0
26.25	0	0
26	0	0
3.019224421113	-0.401469974918	0
8.234901607028	-0.35771789179	0
8.518285578354	-0.242327591839	0
8.328777073389	-0.153008859619	0
7.25	0	0
7.400656881666	-0.195280611572	0
7.5	0	0
5.385509485898	-0.709154879541	0
5.948697127931	-0.745234910621	0
8.75	0	0
8.5	0	0
8.25	0	0
2.214249105773	-0.404278959534	0
2.896561357202	-0.792481120253	0
9.25	0	0
4.920911116561	-0.192028847294	0
9.651670336652	-0.200847798694	0
9.849824537955	-0.19917205686	0
9.75	0	0
10.095049354068	-0.315754204277	0
10	0	0
3.25	0	0
6.738406513564	-0.710129601907	0
7.121614580011	-0.943026074581	0
11.345829942703	-0.314788260019	0
11.25	0	0
11.104427225455	-0.188863495516	0
6.052412255932	-0.372556729023	0
6.373371846535	-0.274163514827	0
10.25	0	0
10.380281579003	-0.241092027437	0
10.5	0	0
10.75	0	0
10.909079077441	-0.189427130481	0
11	0	0
6.25	0	0
6.5	0	0
4.75	0	0
3.5	0	0
10.672815698565	-0.318467932684	0
10.772487906066	-0.787092734739	0
11.020900486567	-0.439266778492	0
8	0	0
7.75	0	0
11.5	0	0
11.619450354736	-0.231443672836	0
11.75	0	0
8.139317726831	-0.163309591658	0
12.25	0	0
12.158949464947	-0.235415698299	0
12.412455385193	-0.275030800337	0
12.929165084344	-0.221336108042	0
12.686337592177	-0.258437422252	0
12.900449535554	-0.462768612232	0
12.5	0	0
9.405755833308	-0.325979504745	0
9.111697192308	-0.594170467817	0
9.457257345083	-0.753685223931	0
18.101369157139	-0.618560521812	0
18.336839281097	-0.861122419318	0
10.385948631267	-0.570640149046	0
9.5	0	0
13.411260455969	-0.342646276848	0
12.643108055516	-0.590179775368	0
13.137744715761	-0.195204172124	0
13	0	0
21.25	0	0
21.358341816502	-0.326561417551	0
21.5	0	0
13.816492716597	-0.40394453634	0
20.25	0	0
20.423452336785	-0.313445603959	0
20.5	0	0
17.789350393153	-0.390447709085	0
17.987794057246	-0.401472255242	0
17.881276545163	-0.206424156589	0
19.564465692234	-0.270867872644	0
19.290725118801	-0.49926248604	0
16.392319441256	-0.29915360323	0
19.443730892406	-0.923508713428	0
20.457987075478	-0.803203365193	0
20.167450719332	-0.505159975143	0
0.103762538371	-0.253013629949	0
0.267057015134	-0.483604909932	0
0.374713194419	-0.2320817565	0
13.25	0	0
17.415572543912	-0.230682214253	0
17.5	0	0
17.25	0	0
18.108153655084	-0.208141099276	0
18.25	0	0
18	0	0
15.75	0	0
15.544586046819	-0.246453491997	0
15.122708481244	-0.193620038745	0
15.25	0	0
15	0	0
19.75	0	0
24.149237782749	-0.319013340846	0
23.842766599446	-0.577371105011	0
24.183995039967	-0.73159476451	0
13.871646321742	-0.17394291424	0
23.862588150518	-0.245417872715	0
16.84024277193	-0.203626765466	0
16.704049384397	-0.435508179396	0
17.112673188265	-0.38804641709	0
24.75	0	0
24.832880292394	-0.290571430318	0
25	0	0
16.40158555625	-0.755912194683	0
16.850299990829	-0.757941865332	0
17.75	0	0
23.567455674596	-0.325197491724	0
16.25	0	0
16	0	0
22.645812614293	-0.197864648876	0
22.75	0	0
22.5	0	0
16.75	0	0
17	0	0
24	0	0
26.914424714815	-0.337869958787	0
26.621963281699	-0.624626679172	0
26.977877660759	-0.778408201088	0
26.622424322919	-0.264588309935	0
19.34462271879	-0.199329831305	0
19.25	0	0
19.118057075065	-0.225686869553	0
19.5	0	0
26.75	0	0
27	0	0
27.5	0	0
27.604422363523	-0.298869962794	0
27.75	0	0
17.650384190064	-0.227839036584	0
18.343198956448	-0.236734208617	0
18.5	0	0
24.25	0	0
20.143897114391	-0.233773711865	0
25.5	0	0
25.25	0	0
25.344389320279	-0.31693710653	0
21.059546193318	-0.24845941382	0
20	0	0
25.842927934822	-0.248287716678	0
25.75	0	0
25.613904645132	-0.216025146631	0
21	0	0
11.763551406169	-1.481607093928	0
30.981104050195	-0.5526690913	0
30.873880294509	-0.217692518774	0
30.706626759758	-0.34945139905	0
20.75	0	0
20.85240828135	-0.178025243856	0
23.75	0	0
20.66289882074	-0.189089155251	0
30.204950808504	-0.791758966623	0
30.715535843381	-1.149995259266	0
30.543724897762	-0.572259098027	0
30	0	0
30.180216671806	-0.343473673313	0
30.25	0	0
23.229584388362	-0.458653998547	0
29.5	0	0
29.623391954444	-0.322069028408	0
29.75	0	0
21.618913855927	-0.233585823579	0
21.75	0	0
29.348490380579	-0.521100538161	0
29.36294710412	-0.230601226356	0
22	0	0
22.25	0	0
28.25	0	0
28	0	0
28.129259193923	-0.314252106503	0
28.44374413871	-0.484576386004	0
28.100199615755	-0.812038297775	0
28.649230646972	-0.871769248311	0
28.618403654115	-0.227691192115	0
28.5	0	0
28.387848605749	-0.205892081491	0
29.054768525933	-0.708603081552	0
29.344906532636	-0.846887322836	0
26.327430876245	-0.35930637997	0
10.349120516034	-1.04150119828	0
10.894920134778	-1.514321070539	0
24.59640839418	-0.191760546865	0
12.75	0	0
24.5	0	0
13.102881121377	-0.411296235356	0
25.099388239946	-0.214879887129	0
25.97986022697	-0.52841375324	0
24.398993403151	-0.196312410538	0
17.860840746535	-0.577367743328	0
17.566481510048	-0.529340016102	0
26.5	0	0
16.637148248735	-0.188015807345	0
18.183918302467	-0.396443618316	0
27.159348252167	-0.205297590358	0
27.357530053515	-0.198815038154	0
27.25	0	0
15.060354649709	-1.112587998155	0
15.51532665618	-1.043792149387	0
15.178150912169	-0.713100616689	0
10.051363365948	-0.719159376333	0
14.661248691948	-0.27865166374	0
14.75	0	0
27.868836823455	-0.217301839861	0
31	0	0
30.75	0	0
-0.020273477909	-1.415389842481	0
1.054972770973	-1.487485199502	0
0.512583677021	-1.0438154777	0
0.75	0	0
2.361419414365	-0.794513604096	0
29.890297721653	-0.2433406165	0
30.473599299501	-0.238575611274	0
30.5	0	0
30.660802173874	-0.161931182737	0
28.783812899585	-0.467926883932	0
4.937022539393	-0.72440615077	0
6.696914540879	-0.380672503721	0
7.434272221796	-0.695675918868	0
15.339606453815	-0.166204802571	0
15.281953315711	-0.388999642276	0
11.893544445085	-0.335972898148	0
12	0	0
9.753796445798	-0.478866225926	0
7.720012958977	-0.638314519759	0
21.871398197179	-0.313006985103	0
21.615176662754	-0.521922347305	0
21.856785525528	-0.665128848631	0
20.792152536902	-0.448319093295	0
21.109577821412	-0.527879642114	0
21.360297691811	-0.734200004244	0
15.547854961707	-0.580173571081	0
24.496861814148	-0.467031445896	0
25.067351422649	-0.463427753535	0
24.81263825963	-0.684738154192	0
22.865620821195	-0.218348593093	0
23.443705587002	-0.773171720633	0
27.277617447467	-0.489224417775	0
27.863714790534	-0.471681393437	0
26.239117668995	-0.863279739365	0
29.896797054636	-0.547765129844	0
29.612773839625	-0.699757135752	0
29.867172666547	-0.87444432816	0
29.610354212963	-1.521444655905	0
29.59548165142	-1.071765512911	0
29.115129171034	-1.220660174798	0
31.345359428525	-0.458952144926	0
31.144859415042	-0.241304201582	0
15.919565295974	-0.746550096707	0
16.063006820294	-1.289595303187	0
16.5	0	0
14.900855313538	-0.178071167744	0
14.161016743654	-0.72559708689	0
19.011498044983	-0.834202892304	0
16.760433281999	-1.263698818643	0
17.280361389946	-0.931704507314	0
-0.627742252535	-0.296285438777	0
-1	0	0
-1	-0.5	0
0.625738545692	-0.228405936136	0
0.5	0	0
3.313957665883	-0.865581185485	0
3.619156095452	-0.800599314657	0
[...]
CELL_DATA 986
SCALARS 160.00_0.30 double 1
LOOKUP_TABLE default
11.858545350331 9.8197937089267 9.2042993955511 8.675318056445 7.5431904064601 9.4631735436622 9.1247399436817 6.3170455980462 11.706892868672 10.679090900165 9.1762997849612 10.919435228175 9.5855024341086 11.03974001151 11.236359521085 10.95251102973 5.3952997783231 8.6178318571896 9.9560494185745 12.231328765696 10.222200153101 11.076082264207 12.154969961356 10.204561958784 9.6804499209324 9.979873229391 10.945908500595 6.6579577566584 9.9202600656958 10.144311001319 9.1792414558779 10.130604096277 11.288265978814 11.89206407761 8.3814894820152 11.205214902343 10.97628449926 9.9966079047907 6.926901739812 8.5562731539185 12.271355669773 8.5947761155902 11.027501619263 5.7040295798068 10.438432271439 10.042121814281 7.3707117995964 8.1156887906854 10.779616351621 11.521745958959 10.046585996887 9.1490597476617 7.5961081157049 10.680253150772 7.7884605275223 11.430531817506 5.6187797611086 11.878379141202 10.437466895012 9.4765912679374 10.970543801946 9.4791132338597 11.166139479901 11.253390938343 11.545251464036 11.15717447067 8.5303800649063 8.209881891602 11.361312538286 9.2776784839534 11.776802461789 10.865465270657 11.280221833466 11.595158964476 10.744529726781 8.2896249436131 10.621602805242 10.368414544268 11.339076784858 10.903646930272 10.105349287601 7.6208124152699 11.132031496214 9.8627919858477 12.69896753429 13.109419686964 10.47678876397 11.925203525377 10.901079695207 11.016965821684 9.5187569610997 10.94558121833 9.3130142057631 10.745610959805 9.9002710800393 12.263008027222 13.24611456412 12.108525959508 10.676078858837 10.80308049258 10.675290520812 12.214250135119 9.7246009085657 11.542239103095 8.584651365165 7.9360257418853 10.531101992135 9.1324383903613 9.2292355889433 9.8192957222813 9.1530610025371 10.770871924293 10.005024507282 9.6585611219901 10.151645468967 13.864282928427 9.8353076967406 11.844376439383 9.4576587561025 10.551272769 8.006402875578 12.260979554867 9.1053384233064 8.5822867605076 9.5788057743375 11.189300004599 9.1019784779556 8.7732730107354 11.777867931858 11.267993280088 8.7746104320899 11.131528897047 11.309727239348 10.963245178984 8.1682378107052 11.294575179743 9.3423023202773 10.855125548014 9.9439575845223 8.4842513460202 11.028313989437 9.2931603228656 11.698668637928 10.35416622728 13.907100846642 11.975263315657 10.266014652635 7.568632369044 9.4564304208427 8.3631980612978 11.353326201259 11.789005463466 9.2532213412295 11.410572646255 10.050725287532 10.822440459955 10.884985259314 9.5988260274795 8.9020130308319 8.7629428596363 12.83170060901 11.690609748311 9.9765115954935 13.324582548644 10.523266179024 10.277710344201 6.3760260971605 8.5085670731292 11.958645184277 10.347311766861 11.899662273125 11.333045381424 7.3148893991733 8.2515669688146 10.577671726449 9.4970050208941 12.012183743637 11.07546549228 9.2358975007404 10.04661171023 12.065011249764 12.927461191371 11.119293468539 7.0102260591513 7.4003668462603 12.181573644043 10.965648310093 11.520278308955 9.4507891004049 7.357585974084 8.5337212025674 6.5007551667331 10.352724897421 7.3537185633783 10.084091102412 11.051456722665 6.9654708950999 10.715090041786 10.577867848051 9.9101780345886 10.792086923489 9.3795103766816 9.0847171168745 9.8896606253406 10.585760636025 8.1819066617933 10.827815110174 9.8431787162748 12.007917824763 10.522243247269 10.158322858897 11.081256497758 8.4130625573804 9.1584804602751 8.9961648288595 8.8525570618914 7.049434615238 9.5759697294625 6.7060929680367 9.7492190522864 10.173078249501 11.934340519063 10.383352324362 11.969243774738 9.267120376969 11.245697813743 10.5298036345 8.869388374497 8.6718521526999 10.313335345738 9.0321934040215 5.6839315233698 10.991895999339 10.727917124561 9.0070902741791 9.9129880261962 9.2939504695473 7.5705326216058 10.27837053075 8.9792508293142 8.4652934477092 8.5469500122329 11.0964902237 10.172946604218 10.079794252251 10.429228403828 8.8339451752209 9.4838428685173 9.2622824668057 8.4298181840074 8.4121736678847 9.5188756270694 7.7312610873937 9.6096587960892 10.28710581093 8.4909414382897 11.074013783222 10.312397993519 11.080128110084 8.1598368529957 9.7456542590569 9.632924336906 10.508574312362 10.103185428789 9.2788021576767 11.531633375038 9.2024857653295 11.674163594957 8.9142049704308 9.1831676579801 9.839549611267 10.576491239897 10.282515421777 10.416267650437 10.459390995324 10.940047377652 10.106644479153 9.9166157245215 10.846954178961 11.245141782347 8.8027764699496 11.803732699854 11.952911826831 11.798560466161 7.6374967622636 12.2623114019 10.387584624255 11.863381855871 12.277589263779 10.466788411314 9.7733275786176 9.0140285792682 8.6426194318912 11.819592643647 9.9575874628481 10.718806654317 10.028935342766 11.035211815925 11.114806326341 10.995360481167 8.7606969831793 11.538274377472 11.967627500498 10.520615961723 8.9877219956899 8.5142363028108 10.038449511941 11.318056296158 9.4812687503566 10.356563790134 9.8115864629086 11.421913390045 8.8364061741936 9.6059074379847 10.008209967144 8.6157725818919 10.633441480458 8.385751710232 9.1055862401576 9.9372952656555 8.8191249420331 10.082698199137 9.0601243211933 9.1265972360054 9.1590258554651 9.0160846987824 11.073621756014 7.5409897094463 7.4459959657795 5.5732790785953 7.5239659978055 8.1980289362224 9.1184363867428 9.6822085949047 9.0083653144193 9.5771904721766 8.1161779031095 12.639324661996 8.3845742927878 11.552178891443 6.6646659133642 7.8706604814781 11.630271734011 11.308813589462 11.347799472931 10.367199057701 10.594035310587 10.38728317197 9.7389428337657 9.208393984652 9.9953993509795 7.370585626865 9.4427329571539 7.0317183317442 9.6598356400163 6.7477504644288 6.427653032441 8.0259848736666 8.7283155513249 10.53177600137 9.0260225803251 6.5430945874473 7.9035696582912 9.424624758959 10.013666752568 7.8188663676767 6.9178806138793 6.6587713612772 8.0675546912209 11.137821584963 11.711910715964 9.4400896981528 8.3785428284457 7.4790418744599 8.8893604670907 10.172218674824 8.4702660635909 11.270000219569 10.577248850681 7.6271333966015 6.3210589910437 9.083578840919 9.9892749229828 10.496091323763 11.548025946701 10.734103301373 9.1725357783722 11.152888097277 7.6933262903118 12.365090127805 9.3181215234692 8.7952313872657 7.7862405056598 9.9491220831734 8.6826007810388 10.834534502073 8.7430039531172 9.552660727221 9.9739849202038 9.7114234345562 11.279462233348 11.046043343537 9.7587139050794 9.6213333744582 7.2233300082086 11.450612613645 7.3779851656452 9.8427485847839 10.766767736584 8.7392849999554 11.968279540997 9.6002580376738 8.8227001305473 8.4325364814333 9.9592557719692 8.942301094857 8.2051895955161 8.0258085187639 6.9397718517423 8.8236245529502 6.4873324691779 10.360780433559 9.5057189872669 8.1046117786615 8.1019121727822 9.4551336851789 7.879444835198 7.3030708997546 8.339768238086 7.1329154044012 7.7324449379993 11.059337371573 9.6366200022276 9.5328613211721 7.8575165517794 8.3299025869282 6.3777212021588 8.7541830044491 5.4085263643683 8.9819919572114 6.0658219610565 8.2436814429611 12.100519019482 10.082366229007 6.9133692949097 10.186015081515 5.3761086014064 9.84315021005 8.0832162375483 8.7943821283319 11.441788019331 11.561686565597 11.270409244666 9.0149746167748 6.1545205802574 4.9255437640994 8.5545619226701 10.373257181852 8.5939192833508 9.0159928311143 7.5961406955787 9.5287840618342 8.2268551773731 8.1065392479594 8.8158617440044 5.8111749507912 6.7391266244786 8.4390799901369 6.6774922627976 5.8056676076015 6.9238481281464 9.6299281294509 7.463769409093 5.8748711482529 5.1238014671442 10.592721538151 8.9876195677213 9.0756664502736 8.3657237920963 6.4823623443623 8.1186049486535 6.5609110695445 6.7544121214223 10.855680345438 9.2587879422554 8.1282544258824 8.8134162159228 10.261339449533 7.8334809170438 9.40889052958 5.6836670649809 8.9117947468406 11.525290011469 11.485508161898 8.6899805379831 6.8625083011385 5.4569686056623 4.4221704447581 7.8842511985777 10.014825172725 7.6549479213333 7.7038497209504 6.4154884916109 7.6737475321402 8.3013692888927 10.615711788641 6.0709779458238 9.5290008232745 10.561930098257 4.693476350319 9.0308431222516 11.548259903731 10.578609420651 6.3123880290065 8.1601648087763 9.0569618084113 7.2881589268609 6.7367628156514 5.8169802210552 10.235305897177 9.7564559164097 6.024628410849 8.2770910684159 8.995126180833 7.0260264161017 6.1873415843708 5.5898876613696 9.6378201148628 8.6241302753474 6.9096216996125 8.1935496380515 7.5159846880214 8.2393875303813 9.2172250378109 8.0707443062302 7.3313534554341 10.073454368651 9.1073138547207 5.5713414741274 3.9351264852081 9.9421864150104 6.539613067814 10.349713885614 9.0711994736397 6.2076437808078 9.6895033954682 4.4485184342009 7.5080806320265 3.9270358685192 4.8782066078869 9.2675232415455 6.1567829749934 10.585540887518 6.0384289066513 9.5380207715838 8.8148521375196 6.816291647978 9.1692806313844 5.5534852800847 6.7095842006173 7.6493190422856 6.9411043098365 8.4343486241424 6.388635969786 8.0030152589301 9.9571564995653 5.9505796533909 5.3225544272551 8.5209404254415 7.7721461763923 11.776880472355 7.7702186983257 10.345149915487 7.6185223270934 9.744151909076 10.272649214193 6.7310481196708 4.596054969373 8.3813872539915 7.3709717649952 7.6260111476257 7.6595679772101 11.182690577977 9.7390404487885 5.681669570081 9.3358412678995 9.943576251291 8.3121325288201 8.5340553290929 7.6509767291959 8.1153317539668 7.3104399337419 4.5673523795154 9.1480653244314 4.7893013232384 7.9920611372405 8.3178329305246 9.6726747275692 6.6264013537301 8.2291976993801 8.3661190564316 8.2116850966552 7.6126593486048 6.759972006187 5.4281278285809 4.4193182876619 5.6164230422838 7.9702994007347 9.69565994194 8.0010520757963 6.9676922698761 7.5157633465543 6.0875382381932 11.98704605541 6.041131947729 10.772265243813 9.2267361974127 4.1145789844918 9.2034115562673 9.1226296715566 8.9649278825409 8.3429548361927 7.2896723737634 6.3630417164663 6.2234099225576 6.1473030100461 7.3529435146554 9.1677509912032 4.2658885903702 5.4413411952463 4.7948024936009 6.0361518835309 5.3102937957678 9.3502231095736 6.8971360879088 8.3590646496002 5.2174365747708 5.4220718478105 6.2050068783437 8.4932171229255 4.7629131665068 4.6439329352217 7.3213044811338 6.1443482569357 4.095415397411 6.1231334316289 10.104829985551 9.4968117560438 7.3674041534326 4.9944428624297 5.7142575940688 4.7504171524287 6.8004536179411 7.3937484272281 7.1143828972098 7.4467505071554 7.0733239622632 7.3942511894747 6.5280151471271 7.099800979723 6.736087959408 7.1639310472955 6.0774032863406 7.0109670141269 7.1655978122133 6.4739182162031 6.848318358184 6.7717515604952 6.7975384373484 6.9763047112351 6.9854531620066 6.59596358289 6.8356181104567 4.4942486978758 6.0024006708792 8.9564787791839 4.5983164435004 10.482159783662 7.1420138195088 6.8415919140307 6.7063760178442 7.7908268545136 6.0599495446134 5.1181504073467 5.2035107950546 5.1488962765771 5.7236162005408 10.293156770031 11.108122670331 10.677221086478 9.8982493250001 5.5301784161366 3.7907360307221 5.8133441258992 6.386161656974 6.894035504918 5.9124229965247 6.3992867957392 5.3306828156471 6.3000671207244 7.4222680491544 6.7637403936968 6.8177628253369 6.5517124509718 6.8429547028172 6.2214565667559 5.7038270369694 6.7587493456324 6.7181976329862 5.0169518311271 3.7077102770124 3.4132739445916 4.9674771938883 4.4239594661061 7.0425099610216 6.7638861120842 8.3250912513257 6.8326328024754 13.166229904876 11.727240384908 4.4886312525192 4.9226067287716 8.9904402358684 5.6789085181917 4.2210079327832 4.3682008805249 5.6574262221168 7.401755441977 10.996695198645 7.5029766737365 7.9729832161969 6.1372345320486 5.8766531482371 10.979913264417 5.3278869545563 8.3192898469472 11.412371263786 6.0143704059237 4.6301045122032 8.8438585643031 8.4636463477139 5.7612525533824 5.081767754767 4.9032951645264 7.1448932548066 3.8563800168684 5.6483056800098 3.8710242977051 3.7770131824343 4.4289600579863 9.8867352702808 5.4899301155554 5.8289934321109 5.2036911303301 5.3476200255984 4.9391861128514 6.5308498190378 10.335727431135 4.0227720212296 6.8486965412089 3.5573430008319 4.3333845244339 5.4486211189169 4.8200658907153 4.0537397481493 4.4328029847353 4.7570574725681 4.6533618100829 5.6207031198158 4.1425715844231 9.4721142416905 5.5686657714096 4.0538279629871 4.4577206175132 5.2919002330077 5.1735978259348 7.4934052634505 7.0714461647464 9.5456366016029 8.3203494497958 7.0210451218304 7.861180602075 6.0844832056635 6.981706525148 8.6912676147174 7.9608044861047 5.6547623080713 6.5095949857129 6.0497694850785 8.874278534071 7.4185794734858 3.6450620064185 5.3847488079432 6.0992568332843 4.6581488553637 4.7517207921013 4.2547225038808 4.334414880033 4.0904385168454 4.9903965588359 4.1147880956331 4.7582026036969 5.7347994926927 11.556358159526 4.8079805182256 5.7445457720678 5.5637119650327 10.527308529953 8.2098685906554 4.0274926477611 3.9250520731527 3.6956038077824 4.8148263055414 5.25266258323 13.114170934597 3.9421589783718 4.5367921527208 4.858979758241 3.4769984996134 4.4781639929616 5.4195641603126 4.8939941496582 4.8021949533798 4.3634885359558 5.3562237588363 4.8678665445591 4.1506547351034 5.5247758008201 3.6816359094791 4.1751421115863 4.861499359892 4.1706486426423 3.5453214973331 3.9943456961885 3.6881803600638 3.8720923591528 3.8217690662724 3.7734472655747 3.7867458401352 4.7945317372639 4.5446942357554 5.6397160501442 5.9927984699678 3.9928211071448 3.6277110848232 3.5285604766709 4.5275370834652 3.6270787243952 3.7097756719378 3.6900080143195 3.7025169522064 3.7724436799466 4.2555779951343 3.9170817965428 4.8017746560197 3.5142080032339 3.4614454978206 4.425916783987 4.2985910876278 3.4654113009128 3.4456185399972 3.689310203548 3.7472415676766 3.641236463644 3.7409549750227 3.5771582612649 3.7499869763487 3.8763234135574 3.621317569821 4.118427314733 3.7312084076711 3.6823309791092 3.5175908748938 4.462168383293 3.449921116294 3.5978840416471 3.5627237320642 3.4343524522788 3.4132175332596 3.5583961911401 3.5709426296513 3.8417140954246 3.6171642440901 4.2477049627754 3.5646087989259 4.1124422556942 3.3977496056289 3.4802459419737 3.8667634587409 4.0681509697091 3.5765309678498 3.5365409471713 3.4171289072936 5.0309438885396 3.9621394985046 3.9847915437689 3.8469835035404 3.5076312564236 3.4636219761912 3.4213564608083 3.4802372112153 4.2725068107961 3.5366424106209 3.6081351063592 3.681450305561 4.4997308757174 3.9861717418382 3.9630987268103 3.3934628205231 3.4565819281334 4.4575607915878 4.0826666875227 3.7574948989498 3.6490974086472 3.9463101917129 3.3926530099116 3.7654351949529 3.7127832884912 4.3999436457246 3.5540581250453 3.6321004889159 4.190378597538 3.6639213215584 4.1473590931242 3.7872054288975 3.7795473722802 4.4145652891804 4.5802307578179 4.3140731741893 3.607840893521 3.8559238800592 3.4894263383465 3.4259219619404 3.5198938119957 3.5947735564608 3.7266942005487 4.1282733443076 4.0986498057519 4.026542361301 3.9197014913863 4.1026070065018 3.8808503401512 4.447776512956 4.4337423948472 4.4167051702106 3.7206173052011 3.5993983215944 3.6185188129094 3.8310599472528 3.9638229944018 3.4721338379334 3.5385602212046 3.8046981886447 3.6208873526099 3.7908594062365 3.6420385269569 3.9616128242679 3.9883474983876 4.1098944933055 3.9616611827191 4.2411818687839 4.2767645075977 4.1672272688315 4.1245460062448 4.0899112998812 4.2512073331488 4.2559991450391 4.2699790418149 4.2303571346143 3.7580373356552 3.6031422863288 4.2587384573165 3.8399618014496 3.7254674363968 3.9235255260511 4.0186310930037 4.2492775797422 3.9538083988617 4.0991070711668 4.3166602190274 4.2040630117721 4.1674561937193 4.2276368709347 3.9464668394901 4.2112709247725 4.1716573058989 
SCALARS 20.00_0.15 double 1
LOOKUP_TABLE default