# vtk DataFile Version 3.0
d-2__ created by libgimli-v1.1.0
ASCII
DATASET UNSTRUCTURED_GRID
POINTS 570 double
14.5	0	0
14.25	0	0
14.386963504964	-0.201738469428	0
22.399299936458	-0.310870122736	0
22.129824335287	-0.229914148082	0
22.126320781198	-0.518791771445	0
8.472303742627	-0.591754876635	0
8.780507935475	-0.76092407121	0
8.82173151259	-0.349253271447	0
18.663262297679	-0.667179415955	0
18.934786529245	-0.453308328646	0
18.636898038907	-0.29588182328	0
4.016904362632	-0.85330676142	0
4.076038737616	-0.331410355179	0
3.713721571226	-0.470767763626	0
1.89953779852	-0.269343012166	0
1.633800503821	-0.203067612233	0
1.644492760828	-0.441295523531	0
4.368408037607	-0.250833874131	0
4.337474161742	-0.544420985055	0
4.67745607622	-0.378433532554	0
1.406172533733	-0.772361039307	0
1.913288206557	-1.218576310882	0
1.90687689783	-0.651895683444	0
2.5	0	0
2.25	0	0
2.347047126858	-0.185539804102	0
1.374000926997	-0.300418771701	0
1.25	0	0
1.114902662369	-0.201591505098	0
1.067401015567	-0.470108640981	0
5.75	0	0
5.699780065382	-0.324747799653	0
5.924584257371	-0.172748359932	0
0.883560935405	-0.231136840652	0
1	0	0
9	0	0
9.117836368049	-0.253904480787	0
2.625577516194	-0.346770599322	0
17.859079774019	-0.943547525024	0
17.535029634209	-1.703182852412	0
18.338018094476	-1.366069799339	0
19.932263871771	-0.826489183604	0
19.881635677668	-0.346204516721	0
19.622287080959	-0.573770479943	0
1.5	0	0
1.75	0	0
23.25	0	0
23	0	0
23.109690227386	-0.220340974338	0
2.75	0	0
2.142562771237	-0.172460438312	0
2	0	0
23.332392704446	-0.202507275941	0
23.5	0	0
19	0	0
18.75	0	0
18.888143078348	-0.195773419804	0
2.90152418742	-0.185685383897	0
7.612175045312	-0.180627982114	0
7.527150943175	-0.401430797998	0
7.881917737402	-0.30462800112	0
25.630635194756	-0.512020961038	0
25.243766894324	-0.80097755811	0
25.758031115142	-0.952821630144	0
3	0	0
28.84859809239	-0.201276387394	0
29	0	0
28.75	0	0
4	0	0
3.835807353334	-0.199536243303	0
3.106904732949	-0.178783649348	0
29.25	0	0
29.092446172194	-0.305987136665	0
13.5	0	0
13.667851890428	-0.185102765244	0
13.75	0	0
3.75	0	0
14.407363653886	-0.441423674912	0
14.125469935998	-0.279652141152	0
4.25	0	0
5.061980176718	-0.407989246181	0
5.335512032876	-0.269401530321	0
5.113979852892	-0.173834924157	0
11.882046000841	-0.812345557852	0
12.478640631525	-1.146569360669	0
12.244190771573	-0.565936619511	0
3.633270844505	-0.195395238442	0
14	0	0
18.378272976509	-0.514977451159	0
5.5	0	0
9.619519097921	-1.16461851757	0
10.030576753886	-1.587265312651	0
9.961661342999	-1.070235523667	0
5.25	0	0
5	0	0
13.157975569138	-0.830425793913	0
13.83833027638	-1.238601004239	0
13.671302359608	-0.710707966059	0
11.325917093147	-0.8366783502	0
11.612143285947	-0.506264798476	0
6	0	0
7	0	0
6.83842404292	-0.188923754932	0
7.11236984822	-0.391746146843	0
6.631875629497	-0.169178192832	0
6.75	0	0
3.21002197083	-0.595267231049	0
3.445510026908	-0.608065324465	0
3.362318141622	-0.306501255187	0
6.120159502895	-0.164221934939	0
4.538525595924	-0.906226152762	0
13.233775457127	-1.737244787017	0
4.5	0	0
16.138065841822	-0.472802517973	0
16.126746690205	-0.221608117926	0
15.859319180798	-0.326402762318	0
26.080401003391	-0.227842452866	0
26.25	0	0
26	0	0
3.019224421113	-0.401469974918	0
8.234901607028	-0.35771789179	0
8.518285578354	-0.242327591839	0
8.328777073389	-0.153008859619	0
7.25	0	0
7.400656881666	-0.195280611572	0
7.5	0	0
5.385509485898	-0.709154879541	0
5.948697127931	-0.745234910621	0
8.75	0	0
8.5	0	0
8.25	0	0
2.214249105773	-0.404278959534	0
2.896561357202	-0.792481120253	0
9.25	0	0
4.920911116561	-0.192028847294	0
9.651670336652	-0.200847798694	0
9.849824537955	-0.19917205686	0
9.75	0	0
10.095049354068	-0.315754204277	0
10	0	0
3.25	0	0
6.738406513564	-0.710129601907	0
7.121614580011	-0.943026074581	0
11.345829942703	-0.314788260019	0
11.25	0	0
11.104427225455	-0.188863495516	0
6.052412255932	-0.372556729023	0
6.373371846535	-0.274163514827	0
10.25	0	0
10.380281579003	-0.241092027437	0
10.5	0	0
10.75	0	0
10.909079077441	-0.189427130481	0
11	0	0
6.25	0	0
6.5	0	0
4.75	0	0
3.5	0	0
10.672815698565	-0.318467932684	0
10.772487906066	-0.787092734739	0
11.020900486567	-0.439266778492	0
8	0	0
7.75	0	0
11.5	0	0
11.619450354736	-0.231443672836	0
11.75	0	0
8.139317726831	-0.163309591658	0
12.25	0	0
12.158949464947	-0.235415698299	0
12.412455385193	-0.275030800337	0
12.929165084344	-0.221336108042	0
12.686337592177	-0.258437422252	0
12.900449535554	-0.462768612232	0
12.5	0	0
9.405755833308	-0.325979504745	0
9.111697192308	-0.594170467817	0
9.457257345083	-0.753685223931	0
18.101369157139	-0.618560521812	0
18.336839281097	-0.861122419318	0
10.385948631267	-0.570640149046	0
9.5	0	0
13.411260455969	-0.342646276848	0
12.643108055516	-0.590179775368	0
13.137744715761	-0.195204172124	0
13	0	0
21.25	0	0
21.358341816502	-0.326561417551	0
21.5	0	0
13.816492716597	-0.40394453634	0
20.25	0	0
20.423452336785	-0.313445603959	0
20.5	0	0
17.789350393153	-0.390447709085	0
17.987794057246	-0.401472255242	0
17.881276545163	-0.206424156589	0
19.564465692234	-0.270867872644	0
19.290725118801	-0.49926248604	0
16.392319441256	-0.29915360323	0
19.443730892406	-0.923508713428	0
20.457987075478	-0.803203365193	0
20.167450719332	-0.505159975143	0
0.103762538371	-0.253013629949	0
0.267057015134	-0.483604909932	0
0.374713194419	-0.2320817565	0
13.25	0	0
17.415572543912	-0.230682214253	0
17.5	0	0
17.25	0	0
18.108153655084	-0.208141099276	0
18.25	0	0
18	0	0
15.75	0	0
15.544586046819	-0.246453491997	0
15.122708481244	-0.193620038745	0
15.25	0	0
15	0	0
19.75	0	0
24.149237782749	-0.319013340846	0
23.842766599446	-0.577371105011	0
24.183995039967	-0.73159476451	0
13.871646321742	-0.17394291424	0
23.862588150518	-0.245417872715	0
16.84024277193	-0.203626765466	0
16.704049384397	-0.435508179396	0
17.112673188265	-0.38804641709	0
24.75	0	0
24.832880292394	-0.290571430318	0
25	0	0
16.40158555625	-0.755912194683	0
16.850299990829	-0.757941865332	0
17.75	0	0
23.567455674596	-0.325197491724	0
16.25	0	0
16	0	0
22.645812614293	-0.197864648876	0
22.75	0	0
22.5	0	0
16.75	0	0
17	0	0
24	0	0
26.914424714815	-0.337869958787	0
26.621963281699	-0.624626679172	0
26.977877660759	-0.778408201088	0
26.622424322919	-0.264588309935	0
19.34462271879	-0.199329831305	0
19.25	0	0
19.118057075065	-0.225686869553	0
19.5	0	0
26.75	0	0
27	0	0
27.5	0	0
27.604422363523	-0.298869962794	0
27.75	0	0
17.650384190064	-0.227839036584	0
18.343198956448	-0.236734208617	0
18.5	0	0
24.25	0	0
20.143897114391	-0.233773711865	0
25.5	0	0
25.25	0	0
25.344389320279	-0.31693710653	0
21.059546193318	-0.24845941382	0
20	0	0
25.842927934822	-0.248287716678	0
25.75	0	0
25.613904645132	-0.216025146631	0
21	0	0
11.763551406169	-1.481607093928	0
30.981104050195	-0.5526690913	0
30.873880294509	-0.217692518774	0
30.706626759758	-0.34945139905	0
20.75	0	0
20.85240828135	-0.178025243856	0
23.75	0	0
20.66289882074	-0.189089155251	0
30.204950808504	-0.791758966623	0
30.715535843381	-1.149995259266	0
30.543724897762	-0.572259098027	0
30	0	0
30.180216671806	-0.343473673313	0
30.25	0	0
23.229584388362	-0.458653998547	0
29.5	0	0
29.623391954444	-0.322069028408	0
29.75	0	0
21.618913855927	-0.233585823579	0
21.75	0	0
29.348490380579	-0.521100538161	0
29.36294710412	-0.230601226356	0
22	0	0
22.25	0	0
28.25	0	0
28	0	0
28.129259193923	-0.314252106503	0
28.44374413871	-0.484576386004	0
28.100199615755	-0.812038297775	0
28.649230646972	-0.871769248311	0
28.618403654115	-0.227691192115	0
28.5	0	0
28.387848605749	-0.205892081491	0
29.054768525933	-0.708603081552	0
29.344906532636	-0.846887322836	0
26.327430876245	-0.35930637997	0
10.349120516034	-1.04150119828	0
10.894920134778	-1.514321070539	0
24.59640839418	-0.191760546865	0
12.75	0	0
24.5	0	0
13.102881121377	-0.411296235356	0
25.099388239946	-0.214879887129	0
25.97986022697	-0.52841375324	0
24.398993403151	-0.196312410538	0
17.860840746535	-0.577367743328	0
17.566481510048	-0.529340016102	0
26.5	0	0
16.637148248735	-0.188015807345	0
18.183918302467	-0.396443618316	0
27.159348252167	-0.205297590358	0
27.357530053515	-0.198815038154	0
27.25	0	0
15.060354649709	-1.112587998155	0
15.51532665618	-1.043792149387	0
15.178150912169	-0.713100616689	0
10.051363365948	-0.719159376333	0
14.661248691948	-0.27865166374	0
14.75	0	0
27.868836823455	-0.217301839861	0
31	0	0
30.75	0	0
-0.020273477909	-1.415389842481	0
1.054972770973	-1.487485199502	0
0.512583677021	-1.0438154777	0
0.75	0	0
2.361419414365	-0.794513604096	0
29.890297721653	-0.2433406165	0
30.473599299501	-0.238575611274	0
30.5	0	0
30.660802173874	-0.161931182737	0
28.783812899585	-0.467926883932	0
4.937022539393	-0.72440615077	0
6.696914540879	-0.380672503721	0
7.434272221796	-0.695675918868	0
15.339606453815	-0.166204802571	0
15.281953315711	-0.388999642276	0
11.893544445085	-0.335972898148	0
12	0	0
9.753796445798	-0.478866225926	0
7.720012958977	-0.638314519759	0
21.871398197179	-0.313006985103	0
21.615176662754	-0.521922347305	0
21.856785525528	-0.665128848631	0
20.792152536902	-0.448319093295	0
21.109577821412	-0.527879642114	0
21.360297691811	-0.734200004244	0
15.547854961707	-0.580173571081	0
24.496861814148	-0.467031445896	0
25.067351422649	-0.463427753535	0
24.81263825963	-0.684738154192	0
22.865620821195	-0.218348593093	0
23.443705587002	-0.773171720633	0
27.277617447467	-0.489224417775	0
27.863714790534	-0.471681393437	0
26.239117668995	-0.863279739365	0
29.896797054636	-0.547765129844	0
29.612773839625	-0.699757135752	0
29.867172666547	-0.87444432816	0
29.610354212963	-1.521444655905	0
29.59548165142	-1.071765512911	0
29.115129171034	-1.220660174798	0
31.345359428525	-0.458952144926	0
31.144859415042	-0.241304201582	0
15.919565295974	-0.746550096707	0
16.063006820294	-1.289595303187	0
16.5	0	0
14.900855313538	-0.178071167744	0
14.161016743654	-0.72559708689	0
19.011498044983	-0.834202892304	0
16.760433281999	-1.263698818643	0
17.280361389946	-0.931704507314	0
-0.627742252535	-0.296285438777	0
-1	0	0
-1	-0.5	0
0.625738545692	-0.228405936136	0
0.5	0	0
3.313957665883	-0.865581185485	0
3.619156095452	-0.800599314657	0
[...]
CELL_DATA 986
SCALARS 100.00_0.18 double 1
LOOKUP_TABLE default
10.263619806731 9.4767577515907 8.4512722330658 7.0599241778315 6.3227852497237 9.3554255867143 8.4640330560888 6.2237118910422 10.254274069923 8.7623526158842 8.1705175404023 9.0312468318543 8.2893242963246 10.481796399108 10.331316335202 8.6345516789682 4.718271137449 8.1114371395734 10.220892187644 11.104916416296 10.540645885098 10.301582956932 10.68085085715 9.7555556775559 9.2862448288011 9.7869735322219 9.184532033882 6.7564855534522 9.6369326981372 9.5040997336438 7.6530644180818 8.9463412660678 10.205017977621 9.8241026914488 6.8319566756786 10.058538156981 9.9188250389401 9.0248662418489 6.1566849910995 6.7633020101327 11.180372529105 6.6581926959441 9.6761194608247 5.0795694302594 9.3438576614722 8.805999298392 6.4986317043553 7.3798290525044 8.7985031267369 9.2907727301263 7.878224521664 7.072980147863 6.2345597498287 8.9185040777855 7.047009482039 9.3021226696707 4.9081405328472 11.056953007374 8.6869082350112 7.0421131693024 9.9233868278682 8.6578385163806 10.64094612686 10.601293144506 11.043092921239 10.372033868412 7.6554093961166 6.8615564730488 11.305295056111 7.7667999069241 11.621893488113 10.831849085367 9.7094665336882 10.078354006901 9.881923134931 7.4057452182023 9.8341897390284 9.6578538844737 10.059965809461 10.042886255792 8.3269857090135 6.1066887028414 9.8836144244141 8.134917768344 10.809821315751 10.966268735385 7.5401428860789 10.23290054684 10.252660604125 10.548456085535 9.600255870493 10.966439869137 7.3928167966787 8.7411721134663 8.8220249533987 10.068942477818 10.51739270946 10.473557401394 10.36906992279 9.9759899119126 9.7128448944629 10.043255507318 8.8684991195903 9.8535921579792 7.2749936111119 6.2996418626001 9.6095973734082 8.0868793742919 8.1733919946784 8.7458216848076 7.9837999723884 10.120614540118 9.0840042623502 8.2713530608559 8.9744358975915 13.701870771975 8.9628123330127 10.563981481397 8.8273826906873 8.981622054965 7.2124893285824 10.572130167921 8.9002874610198 7.408546298514 8.372792849534 9.8157387806706 7.9840243033167 7.1876645418284 10.42797908695 10.015587750317 8.4793231070931 9.3247524718596 10.309270639868 10.497285993654 6.6597805381809 9.2896576181199 7.7133555782043 9.9818448672125 10.459916084969 7.946325991782 9.2944481044904 8.0625819673375 8.9475361095899 9.9394006728861 11.642262317 10.719395028068 8.4280691786472 6.3363412350585 8.2399217062604 7.3585508483097 11.320020085489 11.954893985883 7.6718857301233 11.204754210665 8.7090670228749 11.223798335703 10.322315118272 7.5387658628686 8.0307156125209 7.9592907147714 13.114714764187 9.7480938476022 7.9296023640297 13.54695116126 10.379192976292 8.1330655899218 5.7838124984031 7.9574634299138 10.522845992114 10.117915892936 12.019764199467 10.693872852732 6.0457959429005 7.6611020905837 9.8395525459318 10.094098691934 9.3065970441984 8.741305762312 8.8885478939046 9.7830049167954 10.519656220125 9.3838957194494 10.323733023652 6.8232740218903 6.7094873877757 10.623744920188 9.5725426565814 10.391364429405 8.9980429663931 6.9697459858521 7.7173967870523 5.9056813526122 9.2203202384232 6.0494862458566 9.3156536811248 9.0880302955081 5.9696394527323 10.805353198858 8.964837444878 8.8225121212824 10.099391624854 9.3042258689648 8.6174383227275 8.4245614693272 9.7232652930029 7.4840437786755 9.413802217725 9.015674497297 9.111273202889 10.294890946891 8.8058545550334 9.9758273042399 8.6412228835374 7.5792354814961 7.852902695638 8.0145828623055 5.3263837714452 8.1089590409679 6.0004565584104 8.8049126680776 9.706361264038 9.5374972768054 9.9293649163697 11.401999015041 9.0121634831723 10.188203131985 9.7679173361674 9.6590918997536 8.5224722465519 10.187264561291 9.1990904548698 5.3975361916475 9.7385462912163 9.8004373060546 8.0699837406672 9.6195790230435 9.1328673167164 6.8692429913274 8.7813824067607 8.6212230153824 7.6519626223253 7.2100498627866 10.3916936256 9.0203016577408 8.4019517564211 10.035944171619 6.8028530485656 8.6646192690246 8.386196636966 8.0310882578317 6.8968736878614 7.9774034706719 6.624827656027 9.1219123229734 10.568954584532 6.7437572922192 9.8785003847038 9.4878708531583 11.113593033339 7.3642293192659 8.5283994854074 7.8408467628646 10.486867694251 9.3572788897207 7.1625211843485 11.32412014145 7.7220060993964 9.4410279512931 7.1943570237712 7.0899259950501 8.7895346725394 10.086555993385 8.6906194334848 8.1303466482946 10.038803463518 10.31303934399 7.713883566159 8.6101445801222 9.611578057834 9.1548336136134 7.8792379894803 9.7791554057271 10.783752057245 10.144848081601 6.9154813505008 10.425723294945 9.354970302931 10.705622244727 10.163631922022 9.1757531482792 8.2651469996547 8.1109479715927 7.7176381369031 10.673216845874 8.5380585287933 10.78499136472 8.1146769610301 9.6588097640482 11.410843292568 9.0144652795684 6.8363999420995 9.3562706240056 12.204518209044 10.651743794116 6.4836375970586 8.0360961791674 8.6781807515449 9.5754390368167 8.3330266448255 10.081483886274 9.2218453832134 9.6009738424312 8.0957770013299 8.1055694754007 9.3712920216907 8.0085566155875 9.6928530601424 7.7772244134962 7.475073660373 9.4490661622601 8.3568459753841 9.5399183828246 7.9613921788436 7.5081233746588 8.749173257378 8.6397430144392 10.847025991475 7.3089164126577 6.4062528604532 4.9218216442683 7.8159657124843 7.2970113929378 8.2314893514868 9.0327986343401 7.9389641184584 9.0852523332218 8.2157307436064 9.4566834129876 8.1136902010017 9.5844726697175 5.2571888917983 5.7414295460441 10.995254831518 9.5530276463066 10.003548985185 9.2799702006567 10.132896730627 11.22877354983 8.7742720250647 7.0869824891971 9.0419610589311 6.3747364890787 8.4644830409131 5.8178278398023 7.0681979937819 6.4104455974255 6.1998536045385 7.6372120228262 7.2821692364172 8.0614026071234 6.9690887398108 5.4196640051855 7.5196062217407 8.4867119264908 9.9347677178922 6.8450480103298 6.1006761495634 5.5759758878079 7.2089387489462 9.5502223969871 9.5946365685549 7.2940508489749 6.9075316680812 6.1545556091428 7.4510341668719 8.7178527186215 7.2896147809992 10.072731102907 9.9033440298829 6.536461104596 5.4903372569099 7.1812673919841 8.8644631751226 9.2801813766354 11.259122320751 10.581638087943 8.4530952514987 9.7430081036887 6.9894714526921 10.701217771554 8.4735155051274 7.9884746489962 6.0704928730079 9.0082828873404 7.8452231123378 8.9629994328647 7.3089688183692 8.6252886239897 8.5678306242278 9.1819200128198 10.367231729161 10.718700075455 9.5278078951779 7.4505143687707 6.0464192832423 10.746301542005 6.3618746570304 9.8596100678174 10.955583933285 7.1173761675094 10.547691299883 8.3362724186816 7.6663335785465 7.5182899385871 9.1563889163286 7.8878092615541 6.6806474080908 7.158152370136 5.663334959202 7.0419356245515 6.4461996125673 9.7120156879418 9.0837020965972 6.8062897245617 7.2851856863381 7.6941823952446 6.3337643717851 6.8323553764489 8.0437973655302 7.2538093772043 7.5182337425811 10.474507094164 9.574991305728 8.1493753831374 7.6176296826663 8.5507496142429 5.4206221781253 7.4848333979256 5.1239379143202 7.4810981813985 5.4613246578301 7.2857332806987 9.3473518464998 8.8790671296975 5.5697785020523 8.2866307777864 4.7719865955855 9.4709215127055 6.9923865809308 7.5995376047233 9.7260175462048 9.9423073919855 10.083906934485 6.8872598661628 5.6037195733678 4.4521419861703 7.0772182100296 9.7287105301347 7.9650666175679 8.0046510250894 7.5358158767453 7.9379871569315 8.1092404720743 7.0348544950593 7.1823931392811 4.8831554916187 6.0326156630624 6.6118677373409 5.5348071640057 5.0186247125247 5.6617838687458 9.107025267741 6.7291937530402 4.9385265442505 4.4054683511415 9.1991719535182 7.5580939539972 7.0661883731438 6.5633891647916 5.6364153028766 6.4905591145932 5.4558313792711 5.8387299377749 9.8126639133439 7.9813029355011 7.4358085741084 8.0024098690745 9.6092146015712 7.4856323767213 7.9097943019273 4.693250525263 8.6904908332965 9.1842387565084 9.9883242710024 6.9550340394512 6.0619813845649 4.7159026296138 4.0730214432191 6.4717661459801 8.3965754328915 6.7311112411986 6.7835175477383 5.5575251566117 6.3799220978629 8.1818865401105 10.185593268138 5.5660662560526 8.7273633886338 10.190599422116 4.2491360412798 8.4150649892961 11.449522294527 9.7056013899056 5.3603058264229 8.2116428855723 7.5379606071144 6.3141266053935 5.8780853983721 5.0615677527707 9.6292694366685 9.4536337645216 5.0421600224791 7.8562509629336 7.1625618407768 5.838412312594 5.6017474540536 4.7561793466754 9.6815661221369 8.7712872870581 7.911543650576 6.6659336557638 7.6527115854386 7.6596644163327 7.9679186714253 6.5628228443365 7.5534957228774 9.1281750119239 8.6390184900217 4.9710440463125 3.8034519128005 7.5364793512638 5.7180335024416 8.197869535652 8.6302854224136 5.2496918029956 8.6907969638872 3.8785774123409 5.7765867897581 3.7255611444818 4.3316598673233 8.3706853061485 5.4563436964507 8.0630212545581 5.5199846948417 7.5984679838776 7.3578706371846 6.2014472916407 7.4258957648421 5.2397812634678 5.9987550850443 6.1397238263679 5.7711000453004 7.7283801249362 5.7042096721481 6.7686826632307 8.8323682151314 5.3542643516614 4.8137060070118 6.8146457074347 6.4814294796558 10.302832755172 5.7841371136374 8.265826426685 6.7326948589482 9.1813239512965 8.815835740766 5.4434408575776 3.9762299650395 7.9960504301759 6.9516471978597 6.5255191562886 6.6452326869698 10.057406354947 7.673105706494 5.2027016140632 7.4398269267912 9.4866585905831 8.0227189573669 8.2528432928452 7.2583051382173 7.7761745241505 6.7449566472321 4.0220217596162 7.4870258864469 4.2415252197546 7.8342597378697 7.0365572661031 7.6139600803939 6.0443565690878 6.8940369468162 7.0661052235846 7.0059961622514 6.94180479145 5.7414527345069 4.6603500114918 3.8909662441359 4.8969737414975 6.5443926472288 8.7928517778541 6.8922107879975 6.1385493663323 6.4294430656742 5.2625090000447 10.901532639583 5.1631907147204 10.22251337473 7.915424084901 3.8591249416103 7.9957393967243 8.528577907644 6.7538252486145 8.2469911802838 7.1261755278447 5.6425438509269 5.7757836696294 5.2736343304013 7.1634246376108 7.3672153578913 3.9603135114228 4.8402123561552 4.2042092873878 5.3667903259038 4.7085906550299 8.3450049027132 5.4582085097159 8.2939233671404 4.6482164330485 4.9478558447625 5.130217212039 7.3551132266063 4.3898345408199 4.3761867694747 6.2225235326304 4.9756146709994 3.8533039253272 5.7562446212526 8.9575491217547 8.4092735064675 6.9240358443061 4.4071062312189 4.8729553393621 4.611696327104 7.460697726234 6.8666874900332 7.1711299218696 6.4806834475715 8.4607820307522 7.8241300773357 5.3615559413996 8.0165632977987 5.5925952772469 7.8064752078056 5.6457698431424 7.3879850929262 8.1522860344285 6.5101386750262 7.5143160718512 7.139775602225 7.5034406972438 7.9199890253479 8.1320292181444 6.8548967051879 7.6307640808677 4.1701906620717 5.3210303836141 7.6126914434433 4.5067566042158 9.2361087892986 6.8630486520329 6.0425602858681 6.131604392833 6.1852867858338 5.1492579684913 4.8807340794497 4.8151047340091 4.7588320977571 4.9153174821045 9.2135670348485 9.2151830746631 9.6390835768364 9.7200893413477 4.7096545309532 3.6833363034101 5.238550452128 5.607291951049 5.8003786059806 5.4547817227771 5.5203171317835 5.138858848901 6.0361319069734 6.1582510258368 6.0989505894044 5.9272778309491 6.1635229375886 6.2838052041711 5.6533388996484 5.1785725553152 7.3634042116142 7.2224328946589 4.5449706411209 3.4944106261038 3.3764206026298 4.3027373917075 3.9434952808197 6.5119599575907 5.6512947088601 6.7038780680307 6.170500597837 10.305572436372 10.288043346239 3.988760562747 4.4361694852763 7.4769453983646 5.418199217872 3.7572944389776 3.8791312434993 5.0549091944881 7.0090505219293 8.9249285812225 6.4351746235378 7.1676667627449 5.0268610394368 5.2745581088699 9.0849270569451 4.8101990388285 7.0479897911479 9.9299766755729 4.7810393472125 4.1889199379145 7.2259488699861 7.5083595377338 4.9983074059913 4.5633714592679 4.3901537015396 6.0031620827589 3.8280412060889 4.8693613353726 3.6118090527745 3.5428708781726 4.0281910029862 8.6655241141434 4.6002936854531 5.5523020238348 4.5332483363958 5.2532823528413 4.3045617081715 5.3384293808977 8.0198951518224 3.6249380838435 6.0968204921442 3.4741267652754 4.014613515323 5.1238961518847 4.1834319302048 3.864182235325 3.8948877061652 4.3586171623842 4.1524686200179 4.5909605774866 3.8713505410119 7.0526503397448 4.8985498583176 3.692858470181 4.1079790650368 4.6906748701241 4.6497419618998 6.6874090646496 6.7238865863228 7.6426111681235 6.9829318581861 6.2624989731837 6.7110382744591 5.7497316935624 6.2347006249992 7.1662282633835 6.7686178641173 5.3968399606305 5.9362871944143 5.8361652871216 7.3103321196375 6.5406848135316 3.4727706383295 4.5742491075586 5.4442751640493 4.4376481547904 4.2613322971927 3.9022714156687 4.0647699798033 3.7062655842941 4.4264743635385 3.8398136219224 4.3398370291839 4.7833787663543 10.072167772599 4.2768442818276 5.0827708918118 4.9791629488751 9.1099959158218 7.105759594917 3.8138163852474 3.7418741640011 3.4560413481 4.3752427523776 4.912957605954 10.752338878557 3.7394227530705 4.0905452594416 4.2933322086603 3.4270764284602 4.4847343340585 5.3510237619867 4.826237127644 4.7112459988128 3.9511798690998 4.7875954035539 4.2261201959484 3.7196146645525 4.5547159168978 3.4618714512008 3.7259435865444 4.4079347143274 4.1892681145899 3.3901043205085 3.6661921160606 3.3953515982217 3.5612580528138 3.4677987276238 3.4625976304293 3.5902846899483 4.3636128106009 4.2250102974971 5.2879672994527 5.4809757088961 3.7682089143104 3.4862045614102 3.3852428288338 4.2691526675464 3.55479514069 3.5161017257493 3.5606092278321 3.5737782650362 3.5312158037595 3.8487131631895 3.5687397384643 4.340970941168 3.3038551996766 3.4212304009013 4.1265306657604 4.0105958015844 3.3559200768138 3.3497559724608 3.5380042901644 3.6199975310437 3.3948211300998 3.4258197062198 3.4137642305281 3.533500320913 3.5282534703901 3.5159412863481 3.885261735267 3.5982498616877 3.6680988768192 3.3758838443328 4.2832241542199 3.3773997218525 3.538962740478 3.3461692990468 3.3373467508934 3.3806852503755 3.4030110255563 3.514848204889 3.5715312317753 3.5112200825248 4.2148331971412 3.4844922428877 3.8934327679413 3.3114976274955 3.4148940106202 3.6788957729761 4.1926802131823 3.5475326099324 3.5001151619296 3.3005304380277 4.4496628502631 3.7588040703814 4.2452350234047 3.8119385300997 3.4226700594939 3.5026843238194 3.4426297888656 3.3637041921921 3.9112471778923 3.6712065209208 3.5716020625679 3.7039511951169 3.9636551520858 3.7341460655977 3.9667368049528 3.3379765674788 3.5854425663338 4.5353095499073 4.0850142791255 3.8648351067837 3.5834273970088 3.9952590742533 3.315080083663 3.7309841912275 3.5854399786114 4.2200591169662 3.6713471541658 3.823188275946 4.1609586686078 3.6632576130427 4.1355723292897 3.7430312220988 3.7919034174412 4.118479831626 4.2414097758962 4.2455513629984 3.8106354001259 4.1205372721301 3.5526993275704 3.5200914321665 3.4938260771741 3.5622353828477 3.7150461525541 4.1438291736641 4.1293389752809 4.0163327808774 3.7911443241421 4.0862449471951 4.0690055364918 4.3465771060071 4.598668466784 4.3888608294111 3.6931519584144 3.7162869439071 3.5883647991688 3.8118178407482 3.9588135594679 3.4205447323262 3.7091352291172 3.9417586222659 3.5740447301199 3.7446208649946 3.5910456243065 3.9164115286803 3.950352430272 4.0594025064845 3.9133490127499 4.3011877372171 4.232634157585 4.1206949971911 4.0862520967002 4.0408964532502 4.2033886856652 4.2189169965315 4.2205350191449 4.1859772474036 3.9497084156371 3.6617483623899 4.4545517211525 4.0753445968891 3.8841872834575 4.0282321580529 4.1681704799349 4.223734617442 3.9125063106757 4.0690768292709 4.3333782132159 4.3432362353515 4.4204345731516 4.4258466346204 4.2001817481331 4.4700940479914 4.4216876092434 
SCALARS 200.00_0.42 double 1
LOOKUP_TABLE default