# vtk DataFile Version 3.0
d-2__ created by libgimli-v1.0.12
ASCII
DATASET UNSTRUCTURED_GRID
POINTS 1303 double
5.625	0	0
5.511811217919	-0.146388704457	0
5.676386535709	-0.13519637448	0
0.25	0	0
0.175228502521	-0.179050409113	0
0.326009290428	-0.144330725415	0
0.375	0	0
0.990207725992	-0.114957291708	0
0.841075314552	-0.137634199948	0
0.926498288371	-0.349340723189	0
-0.001071200562	-0.386156929004	0
-0.003317641763	-0.130454088023	0
-0.192720422374	-0.216308252768	0
1.25	0	0
1.175215748534	-0.200562384647	0
1.341115762259	-0.128605193971	0
1.375	0	0
2.25	0	0
2.168494514827	-0.19848886597	0
2.338304607341	-0.128945294536	0
2.375	0	0
1.911268305082	-0.334701951691	0
1.986191885908	-0.110806668109	0
1.838390258011	-0.128853462534	0
1.75	0	0
1.670105949089	-0.197137117999	0
2.986685504441	-0.10889534818	0
2.838723720416	-0.127406828384	0
2.912854264006	-0.329775839393	0
0.75	0	0
0.664572693147	-0.222613872306	0
3.25	0	0
3.168798596028	-0.193682232199	0
3.337828500197	-0.125181208794	0
2.875	0	0
2.75	0	0
4.25	0	0
4.161099470995	-0.193412132741	0
4.332718836325	-0.127723897736	0
3.83511440706	-0.12403687807	0
3.875	0	0
3.75	0	0
3.901908238995	-0.321557035295	0
3.983050435256	-0.106770030737	0
3.665527023987	-0.190866765849	0
5.25	0	0
5.164693411436	-0.21656556845	0
5.338419985376	-0.147288917438	0
4.834321952324	-0.135810575609	0
4.875	0	0
4.75	0	0
6.25	0	0
6.178399669611	-0.137425451145	0
6.356205370496	-0.193853696818	0
5.817814980918	-0.161175429964	0
5.875	0	0
5.75	0	0
6.611939839541	-0.314381537706	0
6.522886280605	-0.104721203126	0
6.75	0	0
6.669178832877	-0.119404962711	0
6.836073690852	-0.177498311423	0
5.39059629209	-0.37339102075	0
4.660917359886	-0.204007052252	0
4.902096977384	-0.356327271651	0
14.897042426984	-0.319128540459	0
14.98121339776	-0.105010975498	0
14.832720105416	-0.123004000492	0
2.669265824618	-0.196872625129	0
7.656019919505	-0.144451020927	0
7.75	0	0
7.625	0	0
6.625	0	0
8.75	0	0
8.672937461928	-0.164309120831	0
8.834289374889	-0.109279841483	0
8.206809119751	-0.294811800109	0
8.187056112549	-0.110869448227	0
8.024316200302	-0.129362764133	0
7.157390904024	-0.111206354394	0
7.25	0	0
7.125	0	0
8.25	0	0
8.125	0	0
9.75	0	0
9.651145885459	-0.185384966231	0
9.827054067621	-0.122428024454	0
9.381816956327	-0.305807769915	0
9.476753337472	-0.101567493772	0
9.327490061855	-0.116748040282	0
10.75	0	0
10.655660803951	-0.196164841752	0
10.830485405183	-0.127989131147	0
10.386748323888	-0.329675548046	0
10.478464938155	-0.108955040137	0
10.328560245085	-0.126395562242	0
9.25	0	0
9.375	0	0
10.25	0	0
10.15270392044	-0.192469144253	0
8.328856990144	-0.128933011689	0
8.375	0	0
9.153857570119	-0.175508527296	0
11.75	0	0
11.660624577581	-0.201812344528	0
11.833823570609	-0.131890823957	0
11.395399221028	-0.337817920558	0
11.481219500696	-0.111845889235	0
11.331881500183	-0.129806070652	0
12.75	0	0
12.669299873111	-0.199190799603	0
12.839534650452	-0.128328673855	0
12.40897914742	-0.340185307353	0
12.485654611126	-0.112072117633	0
12.336727606385	-0.131188239877	0
11.875	0	0
12.25	0	0
12.164627546098	-0.202605127067	0
13.75	0	0
13.669268468008	-0.186168180444	0
13.837322273199	-0.120178339978	0
13.416957459915	-0.319650485848	0
13.487510959619	-0.105281058988	0
13.34010202956	-0.123833443479	0
14.75	0	0
14.66080663422	-0.189613659871	0
14.399926333663	-0.319306441484	0
14.4823067449	-0.105599641009	0
14.334114343934	-0.12250571155	0
14.875	0	0
15.25	0	0
15.158227025815	-0.185762723401	0
15.330441202311	-0.11956675178	0
13.875	0	0
14.25	0	0
14.163960939829	-0.186365139356	0
12.875	0	0
13.25	0	0
13.171786689458	-0.193064330135	0
10.875	0	0
11.25	0	0
11.158129238503	-0.198418008741	0
7.31587636932	-0.171642077952	0
15.3902841013	-0.308450173235	0
15.478958243586	-0.102394874489	0
-0.125	0	0
0.125	0	0
0	0	0
-1	0	0
-0.706889652808	-0.331752981492	0
-0.5	0	0
1.125	0	0
1	0	0
1.625	0	0
2.125	0	0
2	0	0
1.5	0	0
1.488007132967	-0.109900770852	0
0.5	0	0
0.474245721096	-0.130043839003	0
0.625	0	0
3.125	0	0
3	0	0
3.625	0	0
4.125	0	0
4	0	0
3.5	0	0
3.485533411273	-0.107014956798	0
5.67736414417	-0.368119689468	0
5.125	0	0
5	0	0
4.98353533542	-0.118243061674	0
6.125	0	0
6	0	0
6.009467825362	-0.139471566496	0
6.5	0	0
4.625	0	0
5.5	0	0
4.5	0	0
4.481603306259	-0.111052305129	0
2.5	0	0
2.486482293556	-0.110456056597	0
2.625	0	0
7.828740664136	-0.157959666613	0
7.5	0	0
7.497789303332	-0.098817221798	0
8.625	0	0
8.5	0	0
8.493725508365	-0.094448160765	0
8	0	0
10.625	0	0
9.625	0	0
9.5	0	0
9.125	0	0
10.5	0	0
10	0	0
9.976983002093	-0.106037154081	0
10.125	0	0
9	0	0
8.980258705317	-0.095443922293	0
12.625	0	0
11.625	0	0
11.5	0	0
13.625	0	0
12.5	0	0
12	0	0
11.983083448534	-0.113269018621	0
12.125	0	0
15.125	0	0
13.5	0	0
13.125	0	0
14.625	0	0
14.5	0	0
15	0	0
11.125	0	0
14	0	0
13.984735949845	-0.103165953766	0
14.125	0	0
13	0	0
12.987740386932	-0.109238757727	0
11	0	0
10.980033547654	-0.110118532971	0
7	0	0
7.012790729926	-0.096165366155	0
15.625	0	0
15.653391866104	-0.184257106926	0
15.75	0	0
16.25	0	0
16.151956269841	-0.190746813766	0
16.328162175541	-0.125534698515	0
15.827345422636	-0.12109528269	0
15.881623705918	-0.315197408181	0
15.9768075603	-0.104841845177	0
17.25	0	0
17.155473725888	-0.187015736188	0
17.328334720487	-0.12053442359	0
17.375	0	0
16.97978281674	-0.105790715925	0
16.830585534618	-0.124270763258	0
16.892220832712	-0.321708894118	0
16.75	0	0
16.655725821363	-0.19281499559	0
18.25	0	0
18.144056513649	-0.199584109463	0
18.322695877645	-0.133173012767	0
18.375	0	0
19.25	0	0
19.156955168382	-0.212194778097	0
19.332395147696	-0.137501625504	0
19.375	0	0
18.978107771567	-0.118463258117	0
18.827251646435	-0.137822523984	0
18.884674261801	-0.359498065923	0
18.75	0	0
18.648603260315	-0.210400354993	0
17.973004229039	-0.108213471414	0
17.823362138939	-0.124125311933	0
17.87020700187	-0.324156104502	0
17.75	0	0
17.64837652944	-0.187413016584	0
20.25	0	0
20.167288289523	-0.206556633625	0
20.33799343326	-0.133667464393	0
20.375	0	0
21.25	0	0
21.172020853715	-0.201327641466	0
21.340729826518	-0.130206344264	0
20.875	0	0
20.75	0	0
20.839555732676	-0.132066213667	0
20.987710400762	-0.112937783384	0
20.915843633601	-0.342386775443	0
20.669904108595	-0.203936882105	0
22.25	0	0
22.168893714495	-0.194483818359	0
22.337089427477	-0.126591453251	0
21.875	0	0
21.75	0	0
21.840184239699	-0.127666317168	0
23.25	0	0
23.162361450448	-0.215073727418	0
23.335945395372	-0.148199257458	0
22.875	0	0
22.75	0	0
22.83504078106	-0.133126573368	0
27.412614995451	-0.337768305098	0
27.406417478875	-0.760610856776	0
27.663031754041	-0.476449210851	0
23.674319496044	-0.139602731619	0
23.75	0	0
23.625	0	0
22.902876337082	-0.348446434986	0
22.664415839639	-0.19979598046	0
21.987454968006	-0.109075483352	0
21.916658702332	-0.330379709848	0
21.67241042914	-0.19774510361	0
19.984830323221	-0.115851903278	0
19.835879034474	-0.135573032779	0
19.906686139011	-0.351521653308	0
19.75	0	0
19.663378765328	-0.209646647928	0
24.75	0	0
24.672305039303	-0.121865624882	0
24.84054616259	-0.178479133746	0
24.25	0	0
24.125	0	0
24.179559510218	-0.145425217914	0
25.656694723316	-0.141492417978	0
25.75	0	0
25.625	0	0
25.25	0	0
25.125	0	0
25.159224348757	-0.109007087058	0
22.647257188685	-0.476376729768	0
22.872248033711	-0.780455516934	0
25.317652966423	-0.167196322239	0
31.908525182248	-0.237434634112	0
32.248547795208	-0.367887731521	0
32.025	0	0
26.398062594932	-0.327144710524	0
26.335089901602	-0.124890632532	0
26.169730315141	-0.188549564961	0
26.75	0	0
26.662500836065	-0.197477656933	0
26.835401004001	-0.129534360312	0
26.375	0	0
26.25	0	0
27.486869476066	-0.111474770432	0
27.338367230812	-0.130187170762	0
23.816158307302	-0.168335740772	0
23.875	0	0
24.625	0	0
27.75	0	0
27.67023663024	-0.198727549038	0
27.839431305592	-0.128541986375	0
27.375	0	0
27.25	0	0
28.75	0	0
28.666013303123	-0.192953151514	0
28.835335299513	-0.125393524551	0
28.875	0	0
28.41074998604	-0.32692743598	0
28.485854239984	-0.108071323096	0
28.338261561589	-0.126341817439	0
28.25	0	0
28.169650699531	-0.195402875109	0
29.75	0	0
29.656991685033	-0.201213204108	0
29.830700495316	-0.13323291855	0
29.875	0	0
30.75	0	0
30.665605116896	-0.213760177502	0
30.837855425721	-0.139272404211	0
30.875	0	0
30.987248292653	-0.119871959545	0
30.911614165903	-0.362389547989	0
31.25	0	0
31.174363802618	-0.217041176186	0
31.346460135447	-0.143418487957	0
30.400599561582	-0.360265197586	0
30.483280501431	-0.118794220148	0
30.3336351656	-0.137924489201	0
30.25	0	0
30.159375273254	-0.21004086356	0
29.392934647931	-0.331414044449	0
29.48031118177	-0.110263057575	0
29.331777210358	-0.127344913482	0
29.25	0	0
29.160548153072	-0.194064979946	0
27.167334579456	-0.200440763045	0
24.359650796728	-0.20304719459	0
-0.25	0	0
-0.404335947278	-0.221464959739	0
16.125	0	0
16	0	0
17.125	0	0
17	0	0
16.5	0	0
16.478267427857	-0.108008273171	0
16.625	0	0
18.125	0	0
18	0	0
19.125	0	0
19	0	0
18.5	0	0
18.473681471998	-0.115768873419	0
18.625	0	0
17.5	0	0
17.47687846862	-0.103462148239	0
17.625	0	0
20.125	0	0
20	0	0
21.125	0	0
21	0	0
20.5	0	0
20.486446843971	-0.114298370976	0
20.625	0	0
22.125	0	0
22	0	0
23.125	0	0
23	0	0
22.983281399654	-0.116385827149	0
23.5	0	0
23.509214189908	-0.149359691049	0
22.625	0	0
22.5	0	0
22.48467632496	-0.1093719097	0
21.5	0	0
21.488472844532	-0.111208801785	0
21.625	0	0
19.5	0	0
19.482219828947	-0.117572233456	0
19.625	0	0
24.5	0	0
24.525433875838	-0.108080714825	0
25.824234283709	-0.149177038136	0
25.5	0	0
25.498573523516	-0.096586408813	0
25	0	0
25.014769107289	-0.095147895568	0
21.919931345447	-0.741308582321	0
22.160361550711	-0.463896476278	0
26.625	0	0
26.5	0	0
26.482631880244	-0.108512805864	0
27.625	0	0
27.5	0	0
27	0	0
26.984612185119	-0.111680714924	0
27.125	0	0
26.125	0	0
26	0	0
25.990349817319	-0.10847866492	0
28.125	0	0
28.625	0	0
28.5	0	0
30.625	0	0
29.625	0	0
29.5	0	0
29	0	0
28.983089608831	-0.107750428826	0
29.125	0	0
30.125	0	0
30.5	0	0
31.63125	0	0
31.5	0	0
31.494696987447	-0.123712578064	0
23.671261205816	-0.380102168636	0
31	0	0
31.125	0	0
30	0	0
29.980228243528	-0.115525062547	0
28	0	0
[...]
CELL_DATA 2263
SCALARS 1600.00_0.82 double 1
LOOKUP_TABLE default
9.7629999464154 8.027414583751 8.1083753997939 9.0277828147656 7.9013260094419 9.4649437763424 9.529783166465 9.9408408467593 9.949544153894 10.095616799335 10.318321642017 9.2722301909813 8.8534511307396 8.7064381213714 9.5350010550683 9.3359476183853 8.7353206831007 8.781833507603 8.6907172651874 9.4708434585181 9.5246978873908 9.266551628785 9.741100423967 9.1145065135376 8.9723269948545 9.4670517216839 9.7510765599833 9.2645095621252 9.4494142320406 11.032670016615 9.562853523127 10.397398392303 8.9227770459766 10.32181948983 10.170513720475 9.936404754678 10.142112274367 10.307292773393 9.7641147662467 11.297401715416 11.031969785784 9.5915901833301 11.129409853854 10.186206252296 9.632339204542 10.516012347513 10.703729079838 10.325857294815 9.9147650857603 10.470505859107 9.9258366362675 10.728432768779 10.812058551739 11.410805334593 11.210921836674 11.402876522723 10.26763994316 10.722463123378 11.313757564349 10.438654830696 10.664178016607 11.379966685928 10.740469969962 9.9926375071211 10.32893271537 7.9725293290255 7.914459040189 7.0716587823439 9.4354149924996 9.3178038445118 10.342059295666 10.245737246531 10.104590298479 10.030404113202 8.6465625634669 7.908662024105 8.8055985162817 9.1698151623019 8.6971834911091 9.124653535659 8.7575727233781 9.3000795958347 9.601425605562 9.5393209081416 9.7269411269669 9.5435316585722 9.0443387947117 9.4436084290961 9.8060701330925 9.6104741267401 9.4911613718588 9.4505143952069 9.9075031717605 8.8009799856525 10.382295955763 10.394910900804 10.150093116312 10.462463994066 10.305588092751 10.394742052115 11.302260527179 10.113036029439 9.7263148609583 11.335032048854 10.833923912385 11.089430188205 10.059404803793 10.308887834045 10.275206384666 10.880866806398 10.778090010584 10.173187044834 10.294754203708 10.015975397184 10.376289712713 10.95502599213 10.590257396604 11.558716609892 10.844002826448 10.82153569533 11.248711949179 11.370410752632 10.581328403131 11.530249998746 11.161349788762 10.668423869764 9.7335794742816 9.691695547354 10.775626262563 11.081664322817 10.740662023703 9.9696166035972 9.9365742261703 10.986119546234 11.373682463256 9.3638201920713 9.3394599666327 10.303149171687 10.419061338528 9.7430823072931 9.6914796374241 9.8460159884466 10.024907812463 11.162930815208 11.232579033237 9.5652669317475 10.459971324649 10.223708563809 10.465701882499 10.082640626846 10.186002689047 9.958553257154 9.4049480393519 7.9705235652034 9.2986638924023 9.3373067149966 9.3848480420178 10.022525938967 10.157297810773 10.561468402138 10.452266372559 9.3719809846733 8.7356706720563 9.8281796936049 9.6504935480393 8.238295845685 9.6192516155035 6.3049090980196 9.0950944302083 8.7795727717106 9.3505689387169 8.9517082314869 9.2772221489819 9.3677497583166 9.3601953098375 9.2915475136371 8.942382908345 9.6796590266042 9.7046792042442 9.6018686122643 9.6208430469919 9.3808796226372 9.3941471667975 7.9274694087315 7.7970691077326 7.7461137099153 7.2653429660934 8.4825420256765 8.5330300229966 9.4773728244055 9.634384158562 8.901094017588 8.736985806518 7.6382740560967 11.046098324314 11.090098705699 10.657347540649 11.376521075336 10.774447240705 11.424163555829 9.7686041381281 10.260961791645 10.128988458239 9.6279218353074 9.4600253497834 10.193604339731 10.070021158937 10.12466359451 11.098172452889 9.6310594285928 10.076034277462 10.954745599888 11.218563783254 10.172928059942 10.285519164387 9.2684066313079 9.9507599066004 9.5915321632063 9.4314566481636 9.7782666048986 10.049214974473 10.128514215122 10.584299883177 10.549398846553 9.6860052663379 10.443953487948 9.3095897036919 9.6990612839928 9.9229030866579 9.7063326485281 8.5479484844182 8.8335577258862 9.0880425913659 9.2897340508641 9.2343077770425 8.957035399384 9.4745621252886 9.6275151781663 9.6077748997595 9.8005277511486 8.1072622544114 9.5669411554977 9.7919316780565 9.4426514785406 8.6227719446739 8.4309242464885 8.9129516089302 6.8528528229064 9.2060421307167 7.729849412621 9.7036585219989 8.9968561394129 7.4676088573204 9.566343420524 9.7177019894807 9.0238103041353 10.221466074379 6.9625465006783 10.631678441928 7.9063259473423 9.2727132890077 8.4401851351764 9.3807760250059 9.8246920603907 10.095013997614 9.9601387705795 10.208037960117 10.363465363835 8.7528313459084 9.1457415689425 8.9652981527611 8.7349589189477 9.1945582014775 9.540112773775 8.7209017051009 8.9559977066338 9.4641482781951 9.7732439017043 8.8454520761689 9.2006397855441 8.0080553930085 9.4853895473574 9.3592346881089 9.6943025646251 9.4281146733261 9.6217445071585 9.7736978329927 9.3842188731571 10.459529483727 10.445253480277 10.21089198256 10.222849312815 10.378279230506 10.235447689376 10.592767672323 11.262617589505 11.389128748222 10.929080791214 11.385623639259 9.8992199436742 9.8068693553494 10.779268775371 10.3966125611 10.198171643904 10.618615806864 10.137716836081 10.0684210353 10.882411287066 10.967660023634 11.515957651066 11.170981080576 10.575917324716 10.416948359681 11.321418727792 11.456077500977 10.559878150334 10.965937278844 10.965005800962 10.842546186401 10.294308408271 10.340352101397 7.4631496622777 10.706880689778 10.971711872823 11.036108957742 11.312347234993 10.320431406389 10.08044978101 11.347970472023 11.166925979475 9.6083403423261 9.4845979036038 10.16684820405 10.601420278176 9.6577788556834 9.9898656411717 10.180605615112 9.9216424441337 11.130794559288 11.184442735196 9.8426725804464 9.8498039707788 10.720517790943 10.352452133249 10.19597144628 10.02061457892 9.9921120326034 9.8781927979468 9.1994732418923 9.2481787819131 9.5769953336445 9.692707212075 10.189670613802 10.265032935577 10.468633462819 10.864751099382 9.8790828928127 9.6366911378402 9.6882259597426 9.6179379188862 9.2446546412169 9.7967755942359 8.9313873163086 8.9152923567588 9.521752786255 9.2550161238505 9.2474362270811 9.5099605128479 9.7383953258833 9.7773775883376 9.5593630816516 9.8118494830476 9.4731818227517 9.2687190608456 8.3038233908853 7.6864994069742 7.6209397463983 6.9219810376656 8.8001665795201 8.465345090813 9.7275488523461 9.6344166158306 8.9285910959825 9.1225723424381 8.9549580090873 9.0917924993255 6.5073105468894 7.8345526375701 6.6293540233025 8.0496815107159 6.7411505098745 8.9076167430039 8.9085453179702 9.2810910503469 10.380348948992 8.6803100129842 9.1516661356368 9.6118248042032 8.5618966448401 8.3534233712213 8.5089955533995 9.4293571864412 8.509766046683 9.5533033209909 9.0120569572617 8.6615756636852 9.4731721177602 9.3094257198725 9.3392732020602 8.278465574622 9.321029028765 10.441099019461 9.4008758665632 6.525140874328 8.8777983905198 9.2866758368419 9.9157155632068 9.7631796540534 10.227090171021 10.295671671247 10.331553375638 10.359573427063 9.5991563751363 9.7391219616231 9.6224271935179 10.30928628267 11.252236296019 9.9805370165888 9.9314135424126 10.349705653029 10.129846149207 10.200163932427 10.735118341793 9.5448020190612 9.9253935059239 10.397053006351 10.614769297579 10.278134114379 10.762993885605 10.529104093673 11.344110435621 10.238592387478 11.172849644684 10.832389689318 10.814784538408 10.854502991405 9.9399164887834 10.384176431272 10.956486746417 11.142618511275 9.046050116947 10.047363671485 10.144822391734 11.157588731553 10.424786041963 10.968452549395 11.43038203907 9.1904141495108 10.73301115946 11.009476857257 9.9998213740702 9.2856143930367 9.7563163668914 9.9066443664433 9.6487157160387 9.3888451797409 10.559183378086 10.036567121396 10.530115526867 9.5565060748649 9.3792657512029 10.104437567667 10.637669731361 10.865573636959 9.271691222696 9.9974309775045 9.4418618671247 9.0561469491234 9.4998393992075 9.6278903054288 9.9260189105938 9.831888079492 9.9508294355714 9.7343772047126 9.8043683063688 10.289250190229 9.5770572119665 9.6562048350215 8.8862875130805 8.7944270357173 8.8363117242334 8.3316156972808 8.9823263476029 9.3559242109161 9.3870241553167 9.6033079308014 8.5934632657162 9.1013648270669 9.6932228256233 8.9014739954226 8.9943242993047 9.2962540022683 9.6452608398728 8.0284243389849 8.4796121487918 7.1352877572642 8.3666897090159 6.4020111758932 9.3499941154085 9.1692928871968 9.5602360695888 9.6138867212758 9.1089738793406 8.6843039423003 9.5475066929071 8.8654766225677 7.2693490324094 7.2781135310072 7.2969288301989 6.8034194590019 8.173542121988 8.2720146767126 9.41111360382 9.6267131601251 9.6992473060375 9.9345514945587 9.9961994872531 10.345801144193 8.8573779449659 9.0039376050391 8.6199312142133 8.6964258233063 9.1355086243971 9.4614127206211 8.6319775018688 8.8109165309344 7.9168543943056 9.6341637507124 9.4220295645635 9.2648922107459 7.4995710227492 9.0700619147743 9.1932400307336 9.7164761972142 8.7209960500081 9.5593413821895 9.2899466255626 9.463374486196 9.8601141427518 10.451946551551 10.175837704668 10.265718656302 9.2531497810444 10.275518469582 10.169382596707 10.423865092202 11.01887878184 11.381162832018 10.829508233636 11.280463899719 9.6741771921077 9.6681701572508 10.271289140763 10.423777908227 10.182027668556 10.509890095094 9.8049862267034 9.9668074701903 10.714217148047 10.808169554128 11.042862065232 11.29364245691 10.239132804773 10.29711896255 11.079757986606 11.355604995733 10.619694891562 10.863288134502 10.619698934488 10.775661048471 9.450796797175 10.11153885761 10.600201742571 10.86683808101 10.845383670333 11.191914707309 9.9817175542984 9.9997452456497 10.971372409863 11.323446165068 9.3129759450533 9.390253409588 10.077355817977 10.484748709395 9.5586978749701 9.83602083383 9.8496007595228 9.9613657298738 10.748628164303 11.190756378684 9.5865107248455 9.6704969486682 10.196414609533 10.42173273758 9.778903874223 10.060520578584 8.9381333091159 9.925051354283 7.7939331948576 9.2809175986479 9.0085871975004 9.5113538439269 9.9030962857251 10.191131576923 10.319241372703 10.649002155902 7.7087065118651 9.4457353558067 9.2374794519934 9.5978038058352 8.5905927170402 9.6325496023092 8.8998575266067 8.8384642958418 8.4610065883046 9.293626380991 9.1382511136897 9.402903187084 9.5224194065165 9.7213155365064 9.4564184586312 9.7322057519764 9.1716134884002 9.343720724356 7.8498176201241 7.7401655076715 7.1004777892047 7.0274018214681 8.5093331892484 8.4844350797246 9.4306729199466 9.6232133835392 8.8063361362783 9.0046231772415 8.4058920561381 8.7782849807533 7.4818802971714 9.7645834457179 8.5785228375233 9.6062273992122 9.2172541548435 8.6203572318043 8.6752200856704 9.3163984605892 8.2359058346615 8.3982782048209 8.8911728857197 9.2219280900535 8.5809389471822 8.5606651465384 8.4014237506806 8.291361599571 10.029518190348 9.7344943459895 9.1910465505382 9.8106319746352 8.8873753222684 10.216632838569 8.5765481590123 10.079803709261 10.162789171679 10.140827239571 8.486503039361 8.9879091198502 9.0941363954013 10.19152714577 10.385865421919 10.466531816131 8.8859881036556 9.9685537205918 9.5550479653492 10.929816859293 10.345901507225 10.081029583259 9.6741622517842 9.9645458530827 8.7753403742639 8.0990657699037 9.0763724033005 10.394261032474 9.6273631750321 10.976748412033 8.8563446841943 9.5253366375215 9.8080316912598 10.692933134375 9.6894198881879 10.063116131628 10.032366831669 10.20216000801 9.8016309194694 10.510181773553 9.1059996888836 10.020910253983 9.5218522943452 10.284193986411 9.3035489787367 9.6439844286386 9.4986457369482 9.9778849286328 9.4829591788729 10.047372056549 9.8307847699211 9.4251919610503 9.4737811825165 10.308888461882 8.486263816007 10.235629126431 9.3698297141627 10.589929113266 8.4166647084555 9.0131367788721 9.2438301604151 9.6369359540419 8.9874977419069 9.844620900894 9.2859662144611 9.5875398409338 8.8256117067498 9.7828203093828 9.4787464843261 7.8867557881813 9.2762863744635 6.0995090730774 7.9974766779642 7.8084701813797 7.3365743628976 8.7778113475396 8.0272951368922 9.3226314942214 8.6458179683171 9.6193209090361 7.2784010440008 9.2704024281413 9.498421184126 8.7841124937885 9.2189583462578 8.91363144233 9.5352274547412 9.3088623030254 9.2668620842919 8.6549320458847 8.4000738999256 9.5505531497863 9.1050102487399 8.9299624746814 8.647416885974 8.8881525693356 8.3041366807452 7.6168421134728 7.4418093150325 6.798481967834 6.8420153465614 6.3237200519413 7.96648590295 8.5461135822785 8.5431142309993 9.0854456587136 8.6983363856812 9.4035965755909 7.8964856505846 8.3905051979443 6.8991384277657 7.4123230960458 9.0136713993433 7.9521053707523 7.4905780775232 8.1506562228956 7.6169118115659 7.9914352452995 6.5992498879679 7.122804470241 6.3864896319343 6.4648545840927 6.1922577489762 9.3661704005204 7.3945429602265 8.9862989588836 8.6272000306299 8.5122606125415 8.3730552519922 7.5977327560389 8.0738479753971 8.2929020364042 10.073091560245 7.8890073180287 7.8519076751589 8.7948620397224 8.576957819593 9.5651210732086 8.6142039345029 8.2292715323414 10.199539882899 6.0202054911333 9.2549267341989 7.8583831318193 8.7427815177158 8.1893505588162 8.0647458171558 7.9768284452307 8.3988904156895 8.9711906466372 9.3331110869742 8.89144294672 7.4525495004322 10.071499149178 9.325840626369 9.66432539814 9.4293169835505 10.016510293585 9.1259705625476 9.6988743370142 9.284578722715 9.4501742377747 9.0559641065895 9.8678465040521 8.8947499070242 10.492714081857 10.098129258199 10.52340794263 9.6109965107318 10.386872793727 9.8406715947786 10.118895607812 9.5749330520824 8.386130289667 9.1826711206104 10.204026948834 9.4050624860594 8.7510898666697 8.2860141665363 5.6832273167345 8.3514939395491 7.4192501982759 9.3911464817374 8.9693432360136 10.226674510342 9.5020053754848 9.4737342507542 10.312626426747 8.7646772040191 9.4977265735428 9.4924637703262 9.0410989902353 8.948242999761 9.075660619525 8.4953845425387 9.551493369928 8.905966424637 8.74526636554 7.7996685293336 9.686443052308 8.9896299595244 9.9344868534134 8.7424568405051 9.0807714055893 8.3887210315061 9.2292894683218 8.6868284874833 8.6123011581937 9.3135729892394 9.3212157932503 7.9324642668195 6.5216428183096 8.2078031036077 9.6598297924387 8.8729547648471 7.9010673178947 8.1545090278203 8.306078095445 9.6944694360349 9.0657341297281 6.3377974842013 8.3913421921178 8.4095503094809 6.5030807859329 8.3500291225136 8.9473912809451 6.6024776848109 8.3808110707548 8.4792467704851 7.8590415180533 6.5922463064271 8.4232768996637 7.8250606893771 8.8466083288602 8.2114509535794 9.053142577958 8.4956734372461 8.0076992832197 7.714071578783 8.7720453949176 9.3506369089727 9.6795126372219 8.2341816593727 7.8725806012656 6.9969635812891 8.9566046594867 6.1230052600327 8.6555244928348 9.2961885193572 7.8063383095183 6.9032716760746 7.6979927798793 5.7120435535592 6.2102289997398 9.0441861264147 7.4008151914535 9.3118133224363 7.5202361710349 7.0755578102412 7.3188617162912 9.3873499319865 8.3977009746433 8.861019583226 9.4241545845111 8.5151654452392 7.4819202206835 9.4841721931478 7.7475737165791 6.1141017198217 6.7602464513829 6.9662163207833 8.3880246540463 6.8669533379737 9.1060846666455 9.1910958548276 8.9919930058231 9.091747708431 9.5032743793767 8.3567726955335 6.3476918150361 8.058029747 8.9659324092842 6.0952052386034 9.7895625891993 8.9193756710895 7.6534490223554 9.6958283829359 6.9935834697421 9.1504464456505 6.5256756432598 9.2548144760428 7.1170934261311 8.7803720311135 6.4058683974376 8.5359112666148 6.5076068324364 9.5230700508073 5.6404640757124 8.7651865737915 8.652747617303 6.0254986542097 4.0995939486705 7.0947199989145 8.1212728762464 7.6984029405741 7.0692015061346 8.7603150894724 7.5729968882243 9.4081791411364 7.2655528933814 6.7567684870864 8.8032847998732 7.2275643038023 8.4384083845848 6.5735112959726 7.3278863585166 8.0659650835173 6.8210445242916 9.1687977437347 7.1460841067594 8.5119668618477 8.9452495477769 7.4669401857082 6.637259024264 7.8579997823306 5.7647005353605 8.5694499481041 8.6002099737171 7.7990155649709 8.8032901095491 8.6272808600545 5.2235303167729 8.494733309462 6.4643930553473 8.2188975160782 6.4125480148213 8.7323340897468 6.3789354100908 8.0760803363157 8.3696868092172 6.4429085979611 7.8175035715871 8.4022904837843 8.1337651885898 7.8959808457279 7.2382473677238 5.9379487585847 7.3522132960269 6.7580550251321 6.2305721292131 8.4520224622479 6.6313047463521 7.9440828248974 5.1386207699086 8.5558641943377 6.1823506816201 8.0668453092177 8.8563213653703 8.9347802543945 8.0329749054951 9.5336615890133 7.5265478767147 8.2319243593998 7.7578894907407 6.9222690801587 5.7223576927556 7.5761672393144 6.0289080146021 5.4556137912318 6.7439061568581 5.890691061237 6.838403803473 5.7467621086427 6.3260458771966 4.6039380757402 6.7174795322648 6.4226573552948 6.7024908998912 6.0760227262805 6.0790275834863 5.4122813580043 6.5471352806802 6.4833606854631 6.850322901424 6.5324156684851 5.7864774270771 6.7715559473919 6.1231106259503 6.0336099093741 8.1342181359109 6.690462907006 6.385494224207 6.5268834464217 6.3083606446098 7.1998652960914 6.1906479425969 8.3306877199238 8.9716340591603 8.5456308208359 7.8184659387091 5.9558366984854 7.5774963854853 7.3173961784612 8.7258785435479 6.7545944768471 6.0252107260872 8.4381902194667 6.8080563187525 5.7781130647575 6.8194795159502 7.5669184055589 6.0748565222785 6.17735811942 6.8158046509894 6.3348173546232 5.045770838723 6.1700507166685 5.6798241001676 5.8310072713139 5.0539040903278 5.0913101509058 6.8045107780688 5.4202582396377 4.6319512660797 4.3470595618336 3.7941059088055 4.5764595078382 4.8773950881339 7.4904737299946 7.6780336906695 6.9924999608034 7.1231999896268 9.5732664252163 5.9933683890316 6.7126008847964 6.3445630387662 8.0230297319552 8.6162686550676 5.9089351122875 6.1389844277806 6.8980269527622 8.1308993828889 6.453704429913 6.2853882280254 7.9650363212817 6.6458003461467 5.3442262342815 5.8522528734479 6.1571062699729 5.6049586910051 4.7785624235043 5.7073277449174 5.1478915851386 6.4357340552783 6.9039519473086 6.8266864027742 5.5153176721923 6.475274679508 6.0058796920003 5.7555178085243 5.4493887471023 5.5754578754498 5.6920675504706 7.1491869346839 5.7211346784597 4.0711729071209 7.0749143098434 6.15628408691 5.2227477610027 5.3614457062716 6.1912611707984 5.1472871292757 5.041100307997 6.6283825074095 7.2721096773595 7.3178647286466 5.0705836021438 4.1347164942869 5.6303178136186 6.6850957508911 6.6121484250677 6.6825232999621 6.9634373465334 5.9404950167604 6.1373093958708 5.2456988509359 5.1406468267528 4.6288975223 5.1258740116545 6.0350971215574 4.5595503964764 4.0893189636214 5.3411104496203 4.4660333269457 4.8368951310659 5.4830604395988 5.0730998186769 5.906126978557 5.737930219038 6.178363497855 6.6774803988901 5.8105903449168 6.186963918565 6.7748383560493 5.4668133110368 3.3964574116705 5.8782365070536 5.8509657755655 6.4792356055199 5.0666087891635 6.640047248037 6.2857380821582 6.3267592922943 6.2546964554077 5.4812866234127 4.83521180401 5.9225170369009 4.9910326393855 7.2110578773436 7.5491166472955 5.3696256339814 6.1586695116781 4.9345192856794 6.3626011182355 7.0290345458169 7.0588203691723 5.1969315838343 5.6610075643034 3.873173609131 5.3870425948068 4.830549908372 7.0483763235216 5.7581139672335 6.1102383859134 5.224883175866 4.6482735828166 5.7862769879808 5.180450830023 6.0669253085041 4.5588685962319 4.6258603489846 6.4948985644216 5.3861653444265 4.7981895631714 6.5343126262929 5.5394024780312 6.4051242828392 4.8381253399392 5.6418079535949 5.5623735577241 4.8845792333187 5.80525832296 5.2648278343956 6.9754734492034 6.031917927967 5.7962168716042 5.6374198473304 5.9402197595226 6.4548175289508 6.544469136975 5.7810459287741 6.6971913083783 6.0246304869278 4.999268026334 4.484637807977 5.0275693921258 5.0860965239799 5.2668961931083 5.4376876577618 4.5475490085429 6.1459152392747 6.6493096927634 3.417595422487 4.8873200834323 6.1011877836336 4.7279137925686 6.1811760005176 5.0843418381283 5.0193080879461 3.9868245620634 5.4042550984979 4.0115837529559 4.1894490437537 5.1571516947612 4.6437481142101 5.1588601952834 6.0899414748312 5.2680674410167 4.1969292114256 4.4054108947459 4.9365495254892 5.4114480376147 6.6226613116351 5