# vtk DataFile Version 3.0
d-2__ created by libgimli-v1.1.0
ASCII
DATASET UNSTRUCTURED_GRID
POINTS 570 double
14.5	0	0
14.25	0	0
14.386963504964	-0.201738469428	0
22.399299936458	-0.310870122736	0
22.129824335287	-0.229914148082	0
22.126320781198	-0.518791771445	0
8.472303742627	-0.591754876635	0
8.780507935475	-0.76092407121	0
8.82173151259	-0.349253271447	0
18.663262297679	-0.667179415955	0
18.934786529245	-0.453308328646	0
18.636898038907	-0.29588182328	0
4.016904362632	-0.85330676142	0
4.076038737616	-0.331410355179	0
3.713721571226	-0.470767763626	0
1.89953779852	-0.269343012166	0
1.633800503821	-0.203067612233	0
1.644492760828	-0.441295523531	0
4.368408037607	-0.250833874131	0
4.337474161742	-0.544420985055	0
4.67745607622	-0.378433532554	0
1.406172533733	-0.772361039307	0
1.913288206557	-1.218576310882	0
1.90687689783	-0.651895683444	0
2.5	0	0
2.25	0	0
2.347047126858	-0.185539804102	0
1.374000926997	-0.300418771701	0
1.25	0	0
1.114902662369	-0.201591505098	0
1.067401015567	-0.470108640981	0
5.75	0	0
5.699780065382	-0.324747799653	0
5.924584257371	-0.172748359932	0
0.883560935405	-0.231136840652	0
1	0	0
9	0	0
9.117836368049	-0.253904480787	0
2.625577516194	-0.346770599322	0
17.859079774019	-0.943547525024	0
17.535029634209	-1.703182852412	0
18.338018094476	-1.366069799339	0
19.932263871771	-0.826489183604	0
19.881635677668	-0.346204516721	0
19.622287080959	-0.573770479943	0
1.5	0	0
1.75	0	0
23.25	0	0
23	0	0
23.109690227386	-0.220340974338	0
2.75	0	0
2.142562771237	-0.172460438312	0
2	0	0
23.332392704446	-0.202507275941	0
23.5	0	0
19	0	0
18.75	0	0
18.888143078348	-0.195773419804	0
2.90152418742	-0.185685383897	0
7.612175045312	-0.180627982114	0
7.527150943175	-0.401430797998	0
7.881917737402	-0.30462800112	0
25.630635194756	-0.512020961038	0
25.243766894324	-0.80097755811	0
25.758031115142	-0.952821630144	0
3	0	0
28.84859809239	-0.201276387394	0
29	0	0
28.75	0	0
4	0	0
3.835807353334	-0.199536243303	0
3.106904732949	-0.178783649348	0
29.25	0	0
29.092446172194	-0.305987136665	0
13.5	0	0
13.667851890428	-0.185102765244	0
13.75	0	0
3.75	0	0
14.407363653886	-0.441423674912	0
14.125469935998	-0.279652141152	0
4.25	0	0
5.061980176718	-0.407989246181	0
5.335512032876	-0.269401530321	0
5.113979852892	-0.173834924157	0
11.882046000841	-0.812345557852	0
12.478640631525	-1.146569360669	0
12.244190771573	-0.565936619511	0
3.633270844505	-0.195395238442	0
14	0	0
18.378272976509	-0.514977451159	0
5.5	0	0
9.619519097921	-1.16461851757	0
10.030576753886	-1.587265312651	0
9.961661342999	-1.070235523667	0
5.25	0	0
5	0	0
13.157975569138	-0.830425793913	0
13.83833027638	-1.238601004239	0
13.671302359608	-0.710707966059	0
11.325917093147	-0.8366783502	0
11.612143285947	-0.506264798476	0
6	0	0
7	0	0
6.83842404292	-0.188923754932	0
7.11236984822	-0.391746146843	0
6.631875629497	-0.169178192832	0
6.75	0	0
3.21002197083	-0.595267231049	0
3.445510026908	-0.608065324465	0
3.362318141622	-0.306501255187	0
6.120159502895	-0.164221934939	0
4.538525595924	-0.906226152762	0
13.233775457127	-1.737244787017	0
4.5	0	0
16.138065841822	-0.472802517973	0
16.126746690205	-0.221608117926	0
15.859319180798	-0.326402762318	0
26.080401003391	-0.227842452866	0
26.25	0	0
26	0	0
3.019224421113	-0.401469974918	0
8.234901607028	-0.35771789179	0
8.518285578354	-0.242327591839	0
8.328777073389	-0.153008859619	0
7.25	0	0
7.400656881666	-0.195280611572	0
7.5	0	0
5.385509485898	-0.709154879541	0
5.948697127931	-0.745234910621	0
8.75	0	0
8.5	0	0
8.25	0	0
2.214249105773	-0.404278959534	0
2.896561357202	-0.792481120253	0
9.25	0	0
4.920911116561	-0.192028847294	0
9.651670336652	-0.200847798694	0
9.849824537955	-0.19917205686	0
9.75	0	0
10.095049354068	-0.315754204277	0
10	0	0
3.25	0	0
6.738406513564	-0.710129601907	0
7.121614580011	-0.943026074581	0
11.345829942703	-0.314788260019	0
11.25	0	0
11.104427225455	-0.188863495516	0
6.052412255932	-0.372556729023	0
6.373371846535	-0.274163514827	0
10.25	0	0
10.380281579003	-0.241092027437	0
10.5	0	0
10.75	0	0
10.909079077441	-0.189427130481	0
11	0	0
6.25	0	0
6.5	0	0
4.75	0	0
3.5	0	0
10.672815698565	-0.318467932684	0
10.772487906066	-0.787092734739	0
11.020900486567	-0.439266778492	0
8	0	0
7.75	0	0
11.5	0	0
11.619450354736	-0.231443672836	0
11.75	0	0
8.139317726831	-0.163309591658	0
12.25	0	0
12.158949464947	-0.235415698299	0
12.412455385193	-0.275030800337	0
12.929165084344	-0.221336108042	0
12.686337592177	-0.258437422252	0
12.900449535554	-0.462768612232	0
12.5	0	0
9.405755833308	-0.325979504745	0
9.111697192308	-0.594170467817	0
9.457257345083	-0.753685223931	0
18.101369157139	-0.618560521812	0
18.336839281097	-0.861122419318	0
10.385948631267	-0.570640149046	0
9.5	0	0
13.411260455969	-0.342646276848	0
12.643108055516	-0.590179775368	0
13.137744715761	-0.195204172124	0
13	0	0
21.25	0	0
21.358341816502	-0.326561417551	0
21.5	0	0
13.816492716597	-0.40394453634	0
20.25	0	0
20.423452336785	-0.313445603959	0
20.5	0	0
17.789350393153	-0.390447709085	0
17.987794057246	-0.401472255242	0
17.881276545163	-0.206424156589	0
19.564465692234	-0.270867872644	0
19.290725118801	-0.49926248604	0
16.392319441256	-0.29915360323	0
19.443730892406	-0.923508713428	0
20.457987075478	-0.803203365193	0
20.167450719332	-0.505159975143	0
0.103762538371	-0.253013629949	0
0.267057015134	-0.483604909932	0
0.374713194419	-0.2320817565	0
13.25	0	0
17.415572543912	-0.230682214253	0
17.5	0	0
17.25	0	0
18.108153655084	-0.208141099276	0
18.25	0	0
18	0	0
15.75	0	0
15.544586046819	-0.246453491997	0
15.122708481244	-0.193620038745	0
15.25	0	0
15	0	0
19.75	0	0
24.149237782749	-0.319013340846	0
23.842766599446	-0.577371105011	0
24.183995039967	-0.73159476451	0
13.871646321742	-0.17394291424	0
23.862588150518	-0.245417872715	0
16.84024277193	-0.203626765466	0
16.704049384397	-0.435508179396	0
17.112673188265	-0.38804641709	0
24.75	0	0
24.832880292394	-0.290571430318	0
25	0	0
16.40158555625	-0.755912194683	0
16.850299990829	-0.757941865332	0
17.75	0	0
23.567455674596	-0.325197491724	0
16.25	0	0
16	0	0
22.645812614293	-0.197864648876	0
22.75	0	0
22.5	0	0
16.75	0	0
17	0	0
24	0	0
26.914424714815	-0.337869958787	0
26.621963281699	-0.624626679172	0
26.977877660759	-0.778408201088	0
26.622424322919	-0.264588309935	0
19.34462271879	-0.199329831305	0
19.25	0	0
19.118057075065	-0.225686869553	0
19.5	0	0
26.75	0	0
27	0	0
27.5	0	0
27.604422363523	-0.298869962794	0
27.75	0	0
17.650384190064	-0.227839036584	0
18.343198956448	-0.236734208617	0
18.5	0	0
24.25	0	0
20.143897114391	-0.233773711865	0
25.5	0	0
25.25	0	0
25.344389320279	-0.31693710653	0
21.059546193318	-0.24845941382	0
20	0	0
25.842927934822	-0.248287716678	0
25.75	0	0
25.613904645132	-0.216025146631	0
21	0	0
11.763551406169	-1.481607093928	0
30.981104050196	-0.5526690913	0
30.873880294509	-0.217692518774	0
30.706626759758	-0.34945139905	0
20.75	0	0
20.85240828135	-0.178025243856	0
23.75	0	0
20.66289882074	-0.189089155251	0
30.204950808504	-0.791758966623	0
30.715535843381	-1.149995259266	0
30.543724897762	-0.572259098027	0
30	0	0
30.180216671806	-0.343473673313	0
30.25	0	0
23.229584388362	-0.458653998547	0
29.5	0	0
29.623391954444	-0.322069028408	0
29.75	0	0
21.618913855927	-0.233585823579	0
21.75	0	0
29.348490380579	-0.521100538161	0
29.36294710412	-0.230601226356	0
22	0	0
22.25	0	0
28.25	0	0
28	0	0
28.129259193923	-0.314252106503	0
28.44374413871	-0.484576386004	0
28.100199615755	-0.812038297775	0
28.649230646972	-0.871769248311	0
28.618403654115	-0.227691192115	0
28.5	0	0
28.387848605749	-0.205892081491	0
29.054768525933	-0.708603081552	0
29.344906532636	-0.846887322836	0
26.327430876245	-0.35930637997	0
10.349120516034	-1.04150119828	0
10.894920134778	-1.514321070539	0
24.59640839418	-0.191760546865	0
12.75	0	0
24.5	0	0
13.102881121377	-0.411296235356	0
25.099388239946	-0.214879887129	0
25.97986022697	-0.52841375324	0
24.398993403151	-0.196312410538	0
17.860840746535	-0.577367743328	0
17.566481510048	-0.529340016102	0
26.5	0	0
16.637148248735	-0.188015807345	0
18.183918302467	-0.396443618316	0
27.159348252167	-0.205297590358	0
27.357530053515	-0.198815038154	0
27.25	0	0
15.060354649709	-1.112587998155	0
15.51532665618	-1.043792149387	0
15.178150912169	-0.713100616689	0
10.051363365948	-0.719159376333	0
14.661248691948	-0.27865166374	0
14.75	0	0
27.868836823455	-0.217301839861	0
31	0	0
30.75	0	0
-0.020273477909	-1.415389842481	0
1.054972770973	-1.487485199502	0
0.512583677021	-1.0438154777	0
0.75	0	0
2.361419414365	-0.794513604096	0
29.890297721653	-0.2433406165	0
30.473599299501	-0.238575611274	0
30.5	0	0
30.660802173874	-0.161931182737	0
28.783812899585	-0.467926883932	0
4.937022539393	-0.72440615077	0
6.696914540879	-0.380672503721	0
7.434272221796	-0.695675918868	0
15.339606453815	-0.166204802571	0
15.281953315711	-0.388999642276	0
11.893544445085	-0.335972898148	0
12	0	0
9.753796445798	-0.478866225926	0
7.720012958977	-0.638314519759	0
21.871398197179	-0.313006985103	0
21.615176662754	-0.521922347305	0
21.856785525528	-0.665128848631	0
20.792152536902	-0.448319093295	0
21.109577821412	-0.527879642114	0
21.360297691811	-0.734200004244	0
15.547854961707	-0.580173571081	0
24.496861814148	-0.467031445896	0
25.067351422649	-0.463427753535	0
24.81263825963	-0.684738154192	0
22.865620821195	-0.218348593093	0
23.443705587002	-0.773171720633	0
27.277617447467	-0.489224417775	0
27.863714790534	-0.471681393437	0
26.239117668995	-0.863279739365	0
29.896797054636	-0.547765129844	0
29.612773839625	-0.699757135752	0
29.867172666547	-0.87444432816	0
29.610354212963	-1.521444655905	0
29.59548165142	-1.071765512911	0
29.115129171034	-1.220660174798	0
31.345359428525	-0.458952144926	0
31.144859415042	-0.241304201582	0
15.919565295974	-0.746550096707	0
16.063006820294	-1.289595303187	0
16.5	0	0
14.900855313538	-0.178071167744	0
14.161016743654	-0.72559708689	0
19.011498044983	-0.834202892304	0
16.760433281999	-1.263698818643	0
17.280361389946	-0.931704507314	0
-0.627742252535	-0.296285438777	0
-1	0	0
-1	-0.5	0
0.625738545692	-0.228405936136	0
0.5	0	0
3.313957665883	-0.865581185485	0
3.619156095452	-0.800599314657	0
[...]
CELL_DATA 986
SCALARS 160.00_0.27 double 1
LOOKUP_TABLE default
10.406650878757 9.78231908592 8.5791947374069 7.0343990949578 6.2717280426252 9.5755701829459 8.6538159195206 6.0955425262146 10.568049962336 8.9799309783379 8.2659236428137 9.3433678524276 8.4383960287398 11.070311751521 10.701611060458 8.8069125796033 4.6188021258772 8.1271974070032 10.596076919822 11.647013628386 11.004824360594 10.597652975982 11.159805837209 10.122941199622 9.5011478857852 10.217395701657 9.324103633443 6.7087077119331 10.058186099541 9.7255059381766 7.7708247548579 9.3256297665255 10.521918743452 10.048410862367 6.867750997289 10.2551575286 10.417151886627 9.1964601774371 6.0462368237832 6.8286084043094 11.48493960709 6.5786359229103 10.122241108101 4.9810928817939 9.6204754642007 8.8592323300701 6.4832206299515 7.451686706274 9.0144150678013 9.6347064832098 7.931866836199 7.1188011625513 6.2577717295427 9.2403764736425 7.0512853924536 9.6645454503145 4.8058839553761 11.833453540614 8.8288497022032 7.0562616196593 10.255873411094 8.9702852456598 10.960178024247 10.971989546886 11.525973295898 10.733541400062 7.7941094364792 6.9599697224168 11.815776159038 7.9781685689348 12.032720783971 11.270650216039 10.193250145572 10.33879125031 10.138537772984 7.5493866356998 10.31180650774 9.9285991982772 10.33890589278 10.32475684343 8.6386724569068 6.0541727377254 10.001609420579 8.2811791465926 11.136626210178 11.172420379104 7.5560057152742 10.518360959972 10.633213398779 10.961078939918 9.9253745098974 11.431971244369 7.5021813209392 9.0851848383567 8.8882952352479 10.317069495319 10.83746637179 10.849724323109 10.604284253424 10.254688455956 9.8668386160376 10.289613567139 8.9437502012965 10.017325511097 7.173883891543 6.2050905484448 9.7951271715846 7.9634521744917 8.3050614039359 8.8516041627988 7.91447547165 10.500450661923 9.3399205422189 8.4950919166108 9.1425007793618 14.467739925012 9.1432217202311 10.768189489573 8.9200712730548 9.1750083483655 7.2237667868499 10.980335075323 8.9688212311864 7.2521561491651 8.4379106042404 9.8020870302548 8.1451491118123 7.3583722085555 10.691529036014 10.396225889764 8.6680000740358 9.3925223995654 10.87686830177 10.716257305022 6.6107189658148 9.2088858184017 7.8011931926266 10.088537696272 11.074790483471 8.0144634929199 9.3373051100893 8.1942989956838 8.9942885630967 10.308527246579 12.08169974828 10.929520575795 8.6471070370383 6.3284106187634 8.3274594443986 7.4987606805405 11.751245286603 12.389427360439 7.7836575810908 11.679697088137 8.9179079281456 11.856681533742 10.720197670179 7.5245714054002 8.2452246460313 8.1908671422922 13.678669808655 10.037458600671 8.0301031002752 14.069642910639 10.751301929369 8.2082472537167 5.7731836066991 8.1998432395231 10.949695658583 10.603560716092 12.546958429226 10.987522724977 5.8923875036111 7.7202100921697 10.143601680263 10.626948343218 9.5733129467224 8.983020857431 9.1678741890603 10.227000887615 11.044972603289 9.7103537357844 10.77195357573 6.8654225079567 6.6920560774803 10.997456649559 9.8225177220866 10.83173741931 9.265416429789 6.9814024542555 7.9322143827283 5.8914606568272 9.5439523644587 5.9589496446644 9.5972604097185 9.3829752335672 5.8256676185244 11.348577718958 9.1341770179151 9.0116736588463 10.642981235437 9.5147017951757 8.5048871828724 8.5266931106497 10.040776682646 7.5206001700851 9.7562504806974 9.1969761491417 9.4974776398775 10.677494783018 8.6476750325524 10.100779559256 9.0680826753973 7.5820535248907 8.0600188104912 8.2495477545692 5.2572392781856 8.2658015840395 5.9254542534842 9.2424765276657 9.9752024030745 9.918074161974 10.225340794664 11.925893361415 9.3504590141501 10.476760408165 10.034754906211 10.20377346215 8.6082129636896 10.525249973809 9.832969194954 5.2946072433674 10.076894561267 10.137889371054 8.2671857279116 9.8416530443023 9.3530991523409 6.9093082309985 8.8780489657628 8.7129959719787 7.707625717044 7.1754658620238 10.717004487935 9.1623877447912 8.6848584639309 10.513712418796 6.9169659348606 9.0663646985886 8.5803444945948 8.1878593072812 6.9183121485278 7.9829169030167 6.6997395627178 9.2956103543634 11.090682006143 6.7845625006161 10.128225247337 9.7247899455364 11.405822356006 7.3820749340892 8.8450053442048 8.0511353985536 10.99461607911 9.5860274298337 7.1555790041857 11.812694373526 7.7715443392169 9.5837842354095 7.2850432920518 7.1016432406274 9.0514319940445 10.41029706922 8.9569223700674 8.2852402393981 10.139096654826 10.521853353789 7.5302840835889 8.5084599456212 9.8957074592554 9.2496231345111 7.937265300425 10.015539118475 11.057699190911 10.222827122602 6.8949788331347 10.490774629835 9.5357038298427 10.99011538701 10.446248577205 9.2764168533232 8.3193960626082 8.2133210630637 7.7725168925362 11.13746511401 8.7099084339194 11.392557899371 8.2290257229622 10.018455824569 11.890504564299 9.1573158025658 6.7581100400557 9.5926097883086 12.53755304461 10.842320444415 6.3424707348395 8.1426011876243 8.8619735120855 9.7821817346555 8.4293108336579 10.4143953286 9.5627265588507 9.960376677849 8.2239177255208 8.1593037886486 9.631721872592 8.1214182249767 9.9121301243277 7.8245554551236 7.5404782041309 9.6470324312716 8.5948123976573 10.017719038521 8.2166568463165 7.6102753789865 8.9526191716817 8.9471647913357 11.345181022406 7.3605608961655 6.289811608416 4.7928599036968 8.1534794549045 7.2800588153562 8.5018267341165 9.2496893164393 7.9729052311317 9.2719734487331 8.6055278897565 9.713923716062 8.2247957205774 9.6510057215967 5.2102390506332 5.6346679160713 11.451819001333 9.8313043241755 10.127695288878 9.3700320971938 10.367575166468 11.670143665496 8.937447750618 7.0299991285964 9.207630213728 6.3556199965924 8.4348392476937 5.8190745944496 6.8707250491277 6.3999664547416 6.1013782467654 7.6286894523638 7.5298005326489 8.3702517969669 7.0673853825578 5.3743852239414 7.5180701460133 8.6311103507057 10.323400642055 6.8374407328316 6.039284365283 5.5213997776565 7.1885052878769 9.7412139965548 9.7769290031084 7.3259351049158 6.8793294234963 6.0966809317533 7.4896632214303 8.9983924979697 7.3372435897751 10.193858497178 10.137277083415 6.3930767604899 5.3656521004842 7.1362748892547 8.986160956214 9.3813182761238 11.585114597741 10.931810476635 8.4677997885754 9.8503867270191 6.9930252234494 10.890249723493 8.5498247656308 8.0272642049968 5.9675366672054 9.1158642065799 7.8387594223464 8.9777381834412 7.1751757600345 8.6793513866232 8.5197512398735 9.3500773077538 10.71934315965 11.3490006232 9.8896497558031 7.4399566387855 5.944899951179 11.150881568784 6.1966783203039 10.23352180959 11.216132897374 7.0336561441015 10.720187163932 8.4830379329431 7.6882408492813 7.5336114199609 9.4570235908032 8.0084777195908 6.6089022565141 7.1657763885817 5.5865952839872 6.995959061945 6.4031602977847 9.9747686107686 9.2147799825329 6.8042825024465 7.3628951621779 7.8391446062539 6.2995130253574 6.8921216231634 8.1739228354065 7.2275266022876 7.5806541176197 10.882436309133 9.8031415467429 8.3369570643204 7.9015040070328 9.0510840394221 5.2576578281641 7.5345280031536 5.0611580149002 7.4220070800751 5.4228505315624 7.3462972955952 9.6445693292441 9.1202869783617 5.4856141583568 8.3904140643717 4.6651644356919 9.6128739843742 6.9698186233306 7.6242349269317 9.9715410362041 10.098605697321 10.338991066956 6.8675234888315 5.5536185393191 4.3715143304897 7.1265800419881 9.9579862517308 8.0424667623019 8.0841551868277 7.5113306842105 8.1420472358958 8.1604479809352 7.1765139685124 7.3571190508599 4.803093639176 5.9759005656742 6.6528854076611 5.4613554372081 4.9766505852901 5.6151230979805 9.329074500595 6.6873666126378 4.8738667381036 4.3232238167679 9.3740998914972 7.58341732625 7.0587865830692 6.5147222697803 5.5969646536833 6.4333232228809 5.4088730351454 5.6977552785985 9.915353405733 7.9878375328642 7.404073289371 8.0852663958454 9.7884215617279 7.4730029941862 7.9506004045015 4.6574513826466 8.7315733105227 9.1474917923005 10.085585006034 6.9002922302822 5.9574131834762 4.6755904040727 4.0184924588157 6.4273759708847 8.3457940422247 6.6298882170837 6.7329556998793 5.421927810731 6.2833398799034 8.2611932901155 10.419069014225 5.4536464035297 8.8790728613626 10.476027787965 4.1859912988722 8.4372925559997 12.152516523921 9.9231977408967 5.2572276814498 8.2878804468951 7.5520048866202 6.2329929640501 5.8000654920447 4.9706706395239 9.8457711417501 9.6712419613877 4.959237326317 8.007755148756 7.212046602223 5.7726937579586 5.5598147061288 4.6795275154192 9.9076553776022 8.8784457468428 8.3022147092247 6.5210852866966 7.975668633904 7.7325277651691 8.12955281137 6.4233743393594 7.8626408926898 9.3472243196984 8.7860195240462 4.9283245344408 3.7700927478786 7.407483354268 5.6903938784647 7.9976293744917 8.7070833329362 5.1999099283697 8.8618188116089 3.8259402233058 5.7332998188041 3.7079766566999 4.2998328766993 8.4891557844382 5.4422310909153 8.4491370069436 5.4681963547851 7.8318149700794 7.4512194919027 6.1139878480594 7.5890733183956 5.1409580785014 5.9911880780576 6.1386473561365 5.7600246678028 7.7714859821035 5.63017089653 6.7586774758253 8.8627834736925 5.310361919126 4.7403346096123 6.7734764438654 6.4379206375868 10.409279619651 5.6963239162106 8.2584667951351 6.7200383698221 9.2723406029238 8.9534631258059 5.4102517296795 3.908775933995 8.0161068179094 6.9239568931721 6.4253852181507 6.5781909680941 10.32359471286 7.6599314691593 5.1973013152591 7.4647822176014 9.6920330029673 8.0266069648031 8.3814208414164 7.2899507187972 7.9489526683005 6.7947848836922 3.9959634715682 7.7701112888277 4.2241634633257 7.9096760391228 7.2120599869196 7.9054609726395 6.0933292058298 7.0005943614092 7.233070106218 7.0339953783093 6.8737646882912 5.7407593727856 4.6028103897132 3.8375607415226 4.8081199098965 6.525635511964 8.9099677200545 6.866625416242 6.0966527942268 6.4052850015098 5.2201600767913 11.260998654476 5.0570315978959 10.477217574471 7.7724533985475 3.8732928483737 8.0662469097299 8.6875735544999 6.6606952997912 8.2986719956289 7.0637226051793 5.5515260428331 5.7061688883742 5.2045850694618 7.1945092639857 7.5956000311141 3.8958148179453 4.784745386803 4.1464276249285 5.3378758660066 4.6842680555036 8.4193398766584 5.3505969711928 8.4335697692538 4.6159596670279 4.9067096455098 5.01560730329 7.2924691996795 4.2918602423033 4.3257188243817 6.2107115367276 4.8665064656055 3.830629923425 5.6463353207998 9.1121811089794 8.5011561022159 6.8767551720454 4.3431251197999 4.7958861749793 4.5443084371476 7.7466915135448 6.8563769196656 7.361094313286 6.4241226849197 8.9987245701301 8.1895731478795 5.1728155868018 8.4409099195882 5.4119778602451 8.1734612303321 5.6060457703421 7.6474981575471 8.6154842204889 6.6093606903056 7.8137320985947 7.3561742807532 7.796826087177 8.3172177707614 8.5805546761231 7.0170816944569 7.9541057572522 4.1002586145777 5.2849804246502 7.7112484196369 4.3687922696117 9.4567372550531 6.8194225102126 5.9392453845126 6.039297580981 6.0588886505143 5.0526501995278 4.8075762488131 4.7485515305147 4.71189163361 4.7606114884773 9.3368094075021 9.2805286067827 9.9424087947354 10.05899231254 4.5628706111206 3.6924126670193 5.1674780419775 5.4879323781752 5.711143031382 5.3484641270107 5.4647250331733 5.0625011225631 5.9951187493813 5.9968692874266 6.010161699543 5.7964338531401 6.1126054422903 6.271292646389 5.5547170090926 5.1016475908157 7.6266181843757 7.4574367727101 4.5158589148617 3.5150983242025 3.460329522185 4.1813975912814 3.9278939444661 6.5266391706195 5.5183841876486 6.5997448915821 6.1784244874241 10.346011741747 10.392200737053 3.9129041304591 4.423924525755 7.4748060873643 5.3815723502885 3.7219949213978 3.8530379113388 4.9652211193413 7.0258290564619 9.0885854616477 6.3181142185208 7.1599128318972 4.9454845511881 5.2002045378722 9.2501155408574 4.7720885935211 7.2522781753801 10.160196572483 4.7364407821612 4.1061776011819 7.3655654999337 7.5269364999141 4.9784165000372 4.4741367585228 4.3820234996811 5.9816962122382 3.8403858226472 4.8441114839535 3.6091249775022 3.511262253871 3.9940606741692 8.7983011253477 4.4923155211411 5.4275169773776 4.4586314526668 5.1712487183013 4.23791053605 5.2016821376144 8.0364865487733 3.5991367311656 6.0357456527723 3.4966583317619 3.9634783359224 5.0014294806974 4.1220230163745 3.8397831989902 3.8048871462877 4.3145659916752 4.126653065855 4.5518419136329 3.844261608325 6.9949644723626 4.8281193591314 3.6963041339783 4.099879387138 4.6115808302799 4.6268363536104 6.630984512883 6.6136163429055 7.9492418348288 7.0495638831555 6.2235465577645 6.7509837537851 5.6172459739971 6.2667862236889 7.359954506256 6.8771552706076 5.3925161417888 5.8907622109554 5.6722272676343 7.5494981385823 6.6655805887557 3.4984294526871 4.418226549551 5.3564808026874 4.331202506768 4.2004120051489 3.8789664097841 4.0288217916801 3.6703602045018 4.3124158302107 3.857556228639 4.2585673265785 4.6078979011814 10.357446148247 4.2200001651719 5.0132337963917 4.8664484428027 9.2821133481719 7.1264098872303 3.7991343231714 3.7387873991699 3.4615574549546 4.3417212571948 4.8009373809013 10.912594593262 3.7296354799424 4.038591593337 4.25126367385 3.4669672015782 4.4468464279909 5.181894795357 4.7772797457804 4.6143878021446 3.9113203913368 4.6898183208907 4.1036423549632 3.6649264560717 4.4646518985929 3.4970564275126 3.6975480623719 4.3682927280798 4.1616766182038 3.4185541778801 3.6641113149247 3.4028912332006 3.5497196049175 3.4617625840621 3.4424558103746 3.6125138829032 4.3103534021676 4.2171028192802 5.2343809848034 5.4018235478142 3.7664383242558 3.5228970897191 3.4320994095418 4.2104486154738 3.5534627895482 3.5217061308039 3.585883003405 3.5863263970399 3.5543137310685 3.7924163723392 3.5462472183431 4.2502221624964 3.3121486806228 3.4741403178485 4.1059163280368 3.9891440394697 3.4250976970775 3.4200819398857 3.5717141175887 3.6329813638769 3.4156053653118 3.4274359373939 3.4571587485691 3.5345449251035 3.5116398516658 3.5261180098173 3.8698330757831 3.6041744430789 3.6605896608651 3.4271428062854 4.2386865165271 3.4236004381149 3.5692290114687 3.3782106984306 3.4004280927371 3.4629956095375 3.4367494335716 3.5777206579335 3.5694950575037 3.4938342064503 4.1141892073861 3.5050302037789 3.8905798399187 3.3552390414393 3.4551864816128 3.6385697195063 4.2366462336074 3.5957115794868 3.539476906716 3.3261571866989 4.3415506786737 3.7545212484098 4.305261772016 3.7634086484685 3.4365392855414 3.5782486597707 3.5254816801379 3.4211601236906 3.8588328473528 3.7753553613036 3.6244403432618 3.7358463609738 3.8732558728166 3.7229797564579 3.9390036818737 3.3891522310323 3.6863971404572 4.5269743162325 4.0758323591639 3.8980122005726 3.6073339977373 4.0352163303525 3.3564979846117 3.7812113111045 3.6217793682842 4.1810778641297 3.6971768759208 3.878193184643 4.1676327918185 3.700276499838 4.1340768589761 3.7878813534378 3.8350855871237 4.0635309879909 4.1717580953618 4.2303152034107 3.9023705673893 4.20011262248 3.648108445253 3.6256226693811 3.543707623547 3.6030541516884 3.7613113589845 4.125631390256 4.1679308806446 4.0589144673032 3.8065113496397 4.1020979401501 4.1075482163938 4.3129000087742 4.6077933814604 4.3684680064441 3.7432077739698 3.7356375100292 3.6412661843321 3.8595629855417 3.9509093957538 3.4668655462704 3.7884547982617 4.0179224048432 3.6117198524822 3.7823327276209 3.6145153349221 3.9438150103583 3.9682752641945 4.0906395774465 3.9540771891207 4.3338074461971 4.244525014629 4.1392188560599 4.1004906427158 4.0665448085158 4.22017007464 4.227547272034 4.2416883321906 4.2135187008735 4.0394932288672 3.7442618532638 4.4904360566544 4.126755142347 3.9150035619333 4.0647053819531 4.2033951855 4.2552622129639 3.9567513136169 4.1088504576005 4.3631786011437 4.3772045313309 4.4747509044182 4.4649366862905 4.2778433862177 4.5203428984702 4.4704710060426 
SCALARS 20.00_0.12 double 1
LOOKUP_TABLE default