# vtk DataFile Version 3.0
d-2__ created by libgimli-v1.1.0
ASCII
DATASET UNSTRUCTURED_GRID
POINTS 570 double
14.5	0	0
14.25	0	0
14.386963504964	-0.201738469428	0
22.399299936458	-0.310870122736	0
22.129824335287	-0.229914148082	0
22.126320781198	-0.518791771445	0
8.472303742627	-0.591754876635	0
8.780507935475	-0.76092407121	0
8.82173151259	-0.349253271447	0
18.663262297679	-0.667179415955	0
18.934786529245	-0.453308328646	0
18.636898038907	-0.29588182328	0
4.016904362632	-0.85330676142	0
4.076038737616	-0.331410355179	0
3.713721571226	-0.470767763626	0
1.89953779852	-0.269343012166	0
1.633800503821	-0.203067612233	0
1.644492760828	-0.441295523531	0
4.368408037607	-0.250833874131	0
4.337474161742	-0.544420985055	0
4.67745607622	-0.378433532554	0
1.406172533733	-0.772361039307	0
1.913288206557	-1.218576310882	0
1.90687689783	-0.651895683444	0
2.5	0	0
2.25	0	0
2.347047126858	-0.185539804102	0
1.374000926997	-0.300418771701	0
1.25	0	0
1.114902662369	-0.201591505098	0
1.067401015567	-0.470108640981	0
5.75	0	0
5.699780065382	-0.324747799653	0
5.924584257371	-0.172748359932	0
0.883560935405	-0.231136840652	0
1	0	0
9	0	0
9.117836368049	-0.253904480787	0
2.625577516194	-0.346770599322	0
17.859079774019	-0.943547525024	0
17.535029634209	-1.703182852412	0
18.338018094476	-1.366069799339	0
19.932263871771	-0.826489183604	0
19.881635677668	-0.346204516721	0
19.622287080959	-0.573770479943	0
1.5	0	0
1.75	0	0
23.25	0	0
23	0	0
23.109690227386	-0.220340974338	0
2.75	0	0
2.142562771237	-0.172460438312	0
2	0	0
23.332392704446	-0.202507275941	0
23.5	0	0
19	0	0
18.75	0	0
18.888143078348	-0.195773419804	0
2.90152418742	-0.185685383897	0
7.612175045312	-0.180627982114	0
7.527150943175	-0.401430797998	0
7.881917737402	-0.30462800112	0
25.630635194756	-0.512020961038	0
25.243766894324	-0.80097755811	0
25.758031115142	-0.952821630144	0
3	0	0
28.84859809239	-0.201276387394	0
29	0	0
28.75	0	0
4	0	0
3.835807353334	-0.199536243303	0
3.106904732949	-0.178783649348	0
29.25	0	0
29.092446172194	-0.305987136665	0
13.5	0	0
13.667851890428	-0.185102765244	0
13.75	0	0
3.75	0	0
14.407363653886	-0.441423674912	0
14.125469935998	-0.279652141152	0
4.25	0	0
5.061980176718	-0.407989246181	0
5.335512032876	-0.269401530321	0
5.113979852892	-0.173834924157	0
11.882046000841	-0.812345557852	0
12.478640631525	-1.146569360669	0
12.244190771573	-0.565936619511	0
3.633270844505	-0.195395238442	0
14	0	0
18.378272976509	-0.514977451159	0
5.5	0	0
9.619519097921	-1.16461851757	0
10.030576753886	-1.587265312651	0
9.961661342999	-1.070235523667	0
5.25	0	0
5	0	0
13.157975569138	-0.830425793913	0
13.83833027638	-1.238601004239	0
13.671302359608	-0.710707966059	0
11.325917093147	-0.8366783502	0
11.612143285947	-0.506264798476	0
6	0	0
7	0	0
6.83842404292	-0.188923754932	0
7.11236984822	-0.391746146843	0
6.631875629497	-0.169178192832	0
6.75	0	0
3.21002197083	-0.595267231049	0
3.445510026908	-0.608065324465	0
3.362318141622	-0.306501255187	0
6.120159502895	-0.164221934939	0
4.538525595924	-0.906226152762	0
13.233775457127	-1.737244787017	0
4.5	0	0
16.138065841822	-0.472802517973	0
16.126746690205	-0.221608117926	0
15.859319180798	-0.326402762318	0
26.080401003391	-0.227842452866	0
26.25	0	0
26	0	0
3.019224421113	-0.401469974918	0
8.234901607028	-0.35771789179	0
8.518285578354	-0.242327591839	0
8.328777073389	-0.153008859619	0
7.25	0	0
7.400656881666	-0.195280611572	0
7.5	0	0
5.385509485898	-0.709154879541	0
5.948697127931	-0.745234910621	0
8.75	0	0
8.5	0	0
8.25	0	0
2.214249105773	-0.404278959534	0
2.896561357202	-0.792481120253	0
9.25	0	0
4.920911116561	-0.192028847294	0
9.651670336652	-0.200847798694	0
9.849824537955	-0.19917205686	0
9.75	0	0
10.095049354068	-0.315754204277	0
10	0	0
3.25	0	0
6.738406513564	-0.710129601907	0
7.121614580011	-0.943026074581	0
11.345829942703	-0.314788260019	0
11.25	0	0
11.104427225455	-0.188863495516	0
6.052412255932	-0.372556729023	0
6.373371846535	-0.274163514827	0
10.25	0	0
10.380281579003	-0.241092027437	0
10.5	0	0
10.75	0	0
10.909079077441	-0.189427130481	0
11	0	0
6.25	0	0
6.5	0	0
4.75	0	0
3.5	0	0
10.672815698565	-0.318467932684	0
10.772487906066	-0.787092734739	0
11.020900486567	-0.439266778492	0
8	0	0
7.75	0	0
11.5	0	0
11.619450354737	-0.231443672836	0
11.75	0	0
8.139317726831	-0.163309591658	0
12.25	0	0
12.158949464947	-0.235415698299	0
12.412455385193	-0.275030800337	0
12.929165084344	-0.221336108042	0
12.686337592177	-0.258437422252	0
12.900449535554	-0.462768612232	0
12.5	0	0
9.405755833308	-0.325979504745	0
9.111697192308	-0.594170467817	0
9.457257345083	-0.753685223931	0
18.101369157139	-0.618560521812	0
18.336839281097	-0.861122419318	0
10.385948631267	-0.570640149046	0
9.5	0	0
13.411260455969	-0.342646276848	0
12.643108055516	-0.590179775368	0
13.137744715761	-0.195204172124	0
13	0	0
21.25	0	0
21.358341816502	-0.326561417551	0
21.5	0	0
13.816492716597	-0.40394453634	0
20.25	0	0
20.423452336785	-0.313445603959	0
20.5	0	0
17.789350393153	-0.390447709085	0
17.987794057246	-0.401472255242	0
17.881276545163	-0.206424156589	0
19.564465692234	-0.270867872644	0
19.290725118801	-0.49926248604	0
16.392319441256	-0.29915360323	0
19.443730892406	-0.923508713428	0
20.457987075478	-0.803203365193	0
20.167450719332	-0.505159975143	0
0.103762538371	-0.253013629949	0
0.267057015134	-0.483604909932	0
0.374713194419	-0.2320817565	0
13.25	0	0
17.415572543912	-0.230682214253	0
17.5	0	0
17.25	0	0
18.108153655084	-0.208141099276	0
18.25	0	0
18	0	0
15.75	0	0
15.544586046819	-0.246453491997	0
15.122708481244	-0.193620038745	0
15.25	0	0
15	0	0
19.75	0	0
24.149237782749	-0.319013340846	0
23.842766599446	-0.577371105011	0
24.183995039967	-0.73159476451	0
13.871646321742	-0.17394291424	0
23.862588150518	-0.245417872715	0
16.84024277193	-0.203626765466	0
16.704049384397	-0.435508179396	0
17.112673188265	-0.38804641709	0
24.75	0	0
24.832880292394	-0.290571430318	0
25	0	0
16.40158555625	-0.755912194683	0
16.850299990829	-0.757941865332	0
17.75	0	0
23.567455674596	-0.325197491724	0
16.25	0	0
16	0	0
22.645812614293	-0.197864648876	0
22.75	0	0
22.5	0	0
16.75	0	0
17	0	0
24	0	0
26.914424714815	-0.337869958787	0
26.621963281699	-0.624626679172	0
26.977877660759	-0.778408201088	0
26.622424322919	-0.264588309935	0
19.34462271879	-0.199329831305	0
19.25	0	0
19.118057075065	-0.225686869553	0
19.5	0	0
26.75	0	0
27	0	0
27.5	0	0
27.604422363523	-0.298869962794	0
27.75	0	0
17.650384190064	-0.227839036584	0
18.343198956448	-0.236734208617	0
18.5	0	0
24.25	0	0
20.143897114391	-0.233773711865	0
25.5	0	0
25.25	0	0
25.344389320279	-0.31693710653	0
21.059546193318	-0.24845941382	0
20	0	0
25.842927934822	-0.248287716678	0
25.75	0	0
25.613904645132	-0.216025146631	0
21	0	0
11.763551406169	-1.481607093928	0
30.981104050195	-0.5526690913	0
30.873880294509	-0.217692518774	0
30.706626759758	-0.34945139905	0
20.75	0	0
20.85240828135	-0.178025243856	0
23.75	0	0
20.66289882074	-0.189089155251	0
30.204950808504	-0.791758966623	0
30.715535843381	-1.149995259266	0
30.543724897762	-0.572259098027	0
30	0	0
30.180216671806	-0.343473673313	0
30.25	0	0
23.229584388362	-0.458653998547	0
29.5	0	0
29.623391954444	-0.322069028408	0
29.75	0	0
21.618913855927	-0.233585823579	0
21.75	0	0
29.348490380579	-0.521100538161	0
29.36294710412	-0.230601226356	0
22	0	0
22.25	0	0
28.25	0	0
28	0	0
28.129259193923	-0.314252106503	0
28.44374413871	-0.484576386004	0
28.100199615755	-0.812038297775	0
28.649230646972	-0.871769248311	0
28.618403654115	-0.227691192115	0
28.5	0	0
28.387848605749	-0.205892081491	0
29.054768525933	-0.708603081552	0
29.344906532636	-0.846887322836	0
26.327430876245	-0.35930637997	0
10.349120516034	-1.04150119828	0
10.894920134778	-1.514321070539	0
24.59640839418	-0.191760546865	0
12.75	0	0
24.5	0	0
13.102881121377	-0.411296235356	0
25.099388239946	-0.214879887129	0
25.97986022697	-0.52841375324	0
24.398993403151	-0.196312410538	0
17.860840746535	-0.577367743328	0
17.566481510048	-0.529340016102	0
26.5	0	0
16.637148248735	-0.188015807345	0
18.183918302467	-0.396443618316	0
27.159348252167	-0.205297590358	0
27.357530053515	-0.198815038154	0
27.25	0	0
15.060354649709	-1.112587998155	0
15.51532665618	-1.043792149387	0
15.178150912169	-0.713100616689	0
10.051363365948	-0.719159376333	0
14.661248691948	-0.27865166374	0
14.75	0	0
27.868836823455	-0.217301839861	0
31	0	0
30.75	0	0
-0.020273477909	-1.415389842481	0
1.054972770973	-1.487485199502	0
0.512583677021	-1.0438154777	0
0.75	0	0
2.361419414365	-0.794513604096	0
29.890297721653	-0.2433406165	0
30.473599299501	-0.238575611274	0
30.5	0	0
30.660802173874	-0.161931182737	0
28.783812899585	-0.467926883932	0
4.937022539393	-0.72440615077	0
6.696914540879	-0.380672503721	0
7.434272221796	-0.695675918868	0
15.339606453815	-0.166204802571	0
15.281953315711	-0.388999642276	0
11.893544445085	-0.335972898148	0
12	0	0
9.753796445798	-0.478866225926	0
7.720012958977	-0.638314519759	0
21.871398197179	-0.313006985103	0
21.615176662754	-0.521922347305	0
21.856785525528	-0.665128848631	0
20.792152536902	-0.448319093295	0
21.109577821412	-0.527879642114	0
21.360297691811	-0.734200004244	0
15.547854961707	-0.580173571081	0
24.496861814148	-0.467031445896	0
25.067351422649	-0.463427753535	0
24.81263825963	-0.684738154192	0
22.865620821195	-0.218348593093	0
23.443705587002	-0.773171720633	0
27.277617447467	-0.489224417775	0
27.863714790534	-0.471681393437	0
26.239117668995	-0.863279739365	0
29.896797054636	-0.547765129844	0
29.612773839625	-0.699757135752	0
29.867172666547	-0.87444432816	0
29.610354212963	-1.521444655905	0
29.59548165142	-1.071765512911	0
29.115129171034	-1.220660174798	0
31.345359428525	-0.458952144926	0
31.144859415042	-0.241304201582	0
15.919565295974	-0.746550096707	0
16.063006820294	-1.289595303187	0
16.5	0	0
14.900855313538	-0.178071167744	0
14.161016743654	-0.72559708689	0
19.011498044983	-0.834202892304	0
16.760433281999	-1.263698818643	0
17.280361389946	-0.931704507314	0
-0.627742252535	-0.296285438777	0
-1	0	0
-1	-0.5	0
0.625738545692	-0.228405936136	0
0.5	0	0
3.313957665883	-0.865581185485	0
3.619156095452	-0.800599314657	0
[...]
CELL_DATA 986
SCALARS 100.00_0.55 double 1
LOOKUP_TABLE default
7.9131631723809 8.9391617233611 8.1408189819532 6.4881092806533 5.6921116761582 8.8167265024945 8.853857768909 6.1150551605379 9.7087654379972 7.9520198445011 7.7720568407999 7.9328531971463 8.3328317588202 10.498658275995 9.6491035811296 7.5122775848237 4.3204071990349 7.5802219760755 9.2201724565594 9.4860805843481 9.0368372014383 9.7706333210468 10.079252430825 9.1427394113228 11.309375938537 8.4902952164284 9.2661538527327 6.361161702745 8.1141866139561 10.139312671397 7.0049769984649 9.4636119968677 9.4901002667347 12.298525880225 4.9538079867742 9.4208399195043 12.431197208262 8.8805695266191 5.4385296334146 5.0107851620813 7.772789041354 5.765552143375 9.4311406709376 4.5262875851582 9.9714634012416 8.8441109350612 6.0327990293023 6.6944117982353 7.6934832160333 8.5674701874123 7.8442573377415 5.3626964378565 5.7512419513986 8.7460370235726 6.9072245054746 7.9121847630205 4.4785456266613 14.533521315837 7.4523797305553 5.2870274410444 8.5664445591869 8.2542920468934 12.058408903042 9.4525685816141 14.932491564466 13.920703343993 7.3191973854698 6.7922475789707 10.415169388852 8.4573740322856 10.844101989065 14.000539499414 12.427809342174 11.208774776482 9.4470186134254 7.1375101147491 10.488943427231 9.3182579909025 11.356228741376 10.196951917149 10.943713072588 5.5824431000173 9.753318449303 8.0789771439105 8.7418533199807 15.859136992238 7.976403023083 8.421967647886 15.189514593283 12.603509802899 8.4852292444843 9.6368912461945 8.9449969406427 9.3927134229851 9.0438154509608 9.8503817109451 9.6801269868107 10.181292757149 13.547936207247 9.8003400081811 11.461031418257 7.9878601935886 7.6988048074701 12.253404491628 6.5893158671946 5.4392453179192 9.3648485632699 7.3278631384209 7.5879361279303 8.4600095276778 7.0271126432616 9.0886870474432 8.8231904534987 6.299546736938 8.7358214813992 12.707277114419 8.1557922778847 8.2216832363046 8.1759420421997 7.7005729304874 6.7468973627566 11.123129578404 8.3329298273919 6.7925499518693 7.9190921427119 9.5498010289432 7.5376266324976 6.3100540588217 9.1787436392318 9.2645248632747 7.869734972454 8.422177799979 15.126940719281 8.603229203584 6.2692905765922 13.476042539826 7.3824995767954 12.765630055184 11.478414643498 7.2852372269014 8.008089994916 7.9477142470829 8.473467598455 13.056831962914 23.938837324286 16.312465590072 7.9265818829798 5.8676437959457 8.2784445463159 6.824655806264 9.4353803274476 10.112253372057 6.6404124214472 8.9106860970508 10.66503845828 10.650052066129 11.185593529641 6.6273953175336 6.1917757524338 7.1461739745185 12.390169184048 8.2995088821955 6.3087910604619 13.228348340479 11.809521318247 6.4646519886436 5.2411424351905 7.9113620038996 10.807749763778 10.338798773105 12.090488254042 8.535147672309 5.7760930915733 6.3935300433134 9.0664229533967 9.9396405875465 9.3282371237518 7.9300177183184 8.8214741736961 9.8334061477607 10.767617711074 10.040708572825 10.169873579983 6.1173193392603 6.3202081644702 9.926251182499 10.117366004712 10.085104189343 8.8071141850975 6.6620099157535 7.249596772116 5.3789028885934 9.4982746132721 5.3232379118759 9.6912904168014 9.5773974764281 5.262149097052 9.6301158404299 9.2591371429789 8.032149460021 10.019619234665 8.8511713877155 6.4551208899186 7.5902653866528 8.800918020261 6.7606979909094 8.4120682123364 8.9368814896939 8.3510899899228 11.8760336695 7.7844780304256 11.076133860368 7.7358042702472 6.5785347591399 5.8029700001726 5.5338907812262 4.8367911163061 7.1967533147915 5.3032233546637 8.1997410315436 8.8948108111383 8.4291064030697 10.00244550792 8.1339753948326 10.096722856922 9.6700496701548 9.8940764979422 10.710091174786 8.22908993192 9.2249394782323 9.3864450296487 5.0526538365897 9.5929868242997 9.4633697914097 9.5522427024737 9.5400554831729 8.7159163847412 6.7109614532658 8.2895761441017 8.3658935786032 6.5176685254053 6.539324842339 9.738499903605 9.2318554687386 8.4142945792382 10.914673466824 4.9814245811651 8.7168862632332 9.1867904025105 6.8151763598492 6.0248331225629 7.2270965618541 6.3759600371715 9.1126431069289 10.003688265357 5.4807660379281 8.6446943881993 9.1031323407289 8.5971091085888 6.9296631525665 8.8303307710152 9.7010710109575 9.7225719413389 8.9867516575909 6.6333738003757 12.822732415468 7.7948307759947 8.7190712776052 5.2909669661596 5.9945833068569 8.4958236629177 9.8487036519763 8.453172259121 8.5676150481322 13.650817686208 12.534320646681 7.0453400271816 7.9481489945584 9.0765618358823 7.6197681228244 7.5694593604482 8.6313488622011 16.094796329577 11.399019723826 6.1589245136034 12.235455087603 8.3580355048371 11.378569557678 11.449824496564 9.4071448710475 8.2259658635868 7.7662759106154 7.1668623997942 9.6086038849292 8.0681972212254 10.283732852145 7.483321987892 9.3931136094469 12.251659970963 8.4878584067143 6.1154233133821 8.6976646814057 11.172821374892 9.9282074435981 5.7911176773773 7.4728470042407 8.8256027166135 8.7458328544164 8.0524384588519 9.8627957177889 8.9054456900269 8.5105715224495 6.235876854853 7.3686924140384 8.899422668504 7.6196758955584 12.729291689448 7.2789417928078 6.4626838526819 9.6631389829199 8.2719053773863 9.7159210575442 6.033638967083 6.1023900280255 8.0551369875536 8.2876230968139 12.901073837377 6.7993164873677 6.1367759229405 4.6736344534431 7.943204970066 7.0291729108747 8.1331910194537 8.6912765962952 7.5726266020707 9.0216449578187 8.4026309429121 11.006316336078 7.8257101400134 12.498880338011 4.3616994132102 4.9674939531185 9.524424959133 10.798652016116 11.019710644307 9.8060991938871 9.0445704570437 10.118901289575 9.6218472649376 6.0415750132206 8.0890921779228 5.9606731611652 8.5806210997277 4.7800187325318 6.0805238887928 5.7287589510461 6.1050092612058 7.3670439332156 5.9560369379223 8.728923915032 6.240261242194 4.8718363241283 7.3690510621474 8.197811025757 9.0095717259968 6.733298536965 5.8452855898761 5.0786074370999 7.0139217551331 10.30484175027 9.1870894920615 6.3517710531164 6.3557073175979 5.6037257250561 7.0761743031103 8.1522171454793 6.8451857013803 12.214460037494 10.378317045794 5.7710662857949 5.0118654481284 6.1303960738751 8.6154533384969 7.9279933437881 9.7606717661915 13.145095262464 8.104732038511 9.9807140391231 6.376599555345 15.026728850085 8.0995384721579 7.1516473149931 5.239519443152 8.8282047333979 7.1891178541014 8.8750205766239 6.6048878531125 8.874632521763 8.5769944971529 8.4948897978337 10.578853280689 10.592864663507 9.0780795884202 6.4394915092758 5.61157198171 11.165189220694 5.6344097452299 9.1367455824765 10.285856129311 6.1564309107605 12.309868197573 7.0113067615494 6.7809183939825 7.1261882294219 8.5768348496434 6.2162374604549 6.0911517469803 6.8098957365791 5.0818754655494 6.4294172929167 6.0105767239761 12.234995333771 8.8377679919678 5.9941765078571 6.6856211498357 6.4160301743039 5.6908225649131 6.4178240453833 7.7647332495648 6.8328424441813 6.9942791560409 10.744539565062 9.5982157255575 7.6842420305915 8.2257855727433 8.9418587116786 5.1928334956598 7.0825072324196 4.6247678056719 6.9703423500508 4.7864112569635 7.0720427314753 10.178490893951 8.8883436989625 4.9946100760163 8.6127983693281 4.3085199759312 7.8362993700996 6.2201677211739 6.7626302342182 8.6631997681444 11.425878971172 9.6200340330293 6.9377577350841 5.2318729764112 4.0997425200308 5.7359945261132 9.3026459164342 7.7572965158644 7.8596401461505 7.354595305944 8.7960076638353 7.8477319262518 6.3895619960509 6.1279329733339 4.4020644713521 5.6411604005419 5.6640204255102 4.9170094253601 4.7101918555329 5.0063908991634 8.4805742522948 6.3281098439039 4.4750804013587 4.0601848537048 10.379735238972 7.4035926208303 6.1676176232023 6.0139925191571 5.2079420378628 5.8907027862226 4.9711759803462 5.1439731004767 11.553759740449 8.0665473388386 6.6823989073 7.1763888598615 9.7325421098773 7.0203943449148 6.9456412523342 4.4066734679764 8.1582178935101 8.7795425802217 11.786983346504 5.9819081207381 5.3412105189888 4.4531036920489 3.8020844701634 5.9070256102864 8.0352039736605 5.9718912286828 6.2888738110002 4.9403697221473 5.8287599329559 7.4304142881264 9.1965304050164 5.025264133467 8.2541885140783 9.1143180945028 3.9763062336799 7.9771707342023 10.565008776564 8.7584867575098 5.0253312095418 7.9081447689382 6.5364584001025 5.9110020121262 5.5336163050543 4.772180947747 9.2979284605828 9.5635650514073 4.5667738439912 7.2264042302755 6.1139812168476 5.1822429227809 5.2551058871858 4.2734751535068 10.016041407113 8.4770464747573 7.6403425369496 6.2600028533638 8.0908923336899 7.4729621597677 7.6456345125285 6.129028996358 7.8960857250173 9.2159222961665 8.4251018800363 4.6877608333434 3.7202456070124 6.3817147442435 5.5576384909332 7.4528144887783 8.8885229978156 4.8587514284729 8.1526360481202 3.7116218282769 5.5460482995083 3.5875495797347 4.1257840147051 7.5888636555093 4.6067751974933 6.2967628812631 5.3727061772921 7.3613136406643 7.0437810356073 5.709433868039 6.9813354960106 5.1697432125345 5.6363455995577 5.3972456663096 5.2891834859681 7.2150940335442 5.3355077016486 6.4520754428421 9.5038386796166 5.0313066186513 4.4656686001511 6.1211993449337 5.9451583471377 11.334045875695 4.7931771638635 8.6505209874332 6.3916355431939 8.2669993344017 9.1287285497436 5.2937219140379 3.7655078551041 7.2553020350818 6.3168368479795 6.0267756124429 6.1016500500719 9.9764745798156 6.9544539678637 4.8073824851252 6.1027080863899 10.225565197035 7.3445909670625 7.8160887823568 6.8555808809269 7.0648773378515 5.9846277738695 3.8654437216484 6.0426308188791 4.0798795742172 7.2941462268225 6.1115262681593 6.2231240504759 5.3671807145779 5.9439860506268 6.2554300151515 6.5035369166927 6.6273739668471 5.3687950408896 4.3235964561865 3.6987030472593 4.5889444048394 6.1813723075637 8.183816668398 6.6579917429128 5.8386586413086 5.9493277518232 4.8427913171389 9.1655539411788 4.7823625056701 10.038150781275 7.1129792500702 3.7080092486806 8.3852026070747 7.8231315697579 5.4789665539464 7.6154979622837 6.3231896566667 5.2901393158808 5.4220237249793 4.6560370060079 6.6795393213911 6.1115131813265 3.9317046401949 4.6374882834221 3.9807664396629 5.0096347717037 4.3791339317772 8.238733339952 4.8063166809183 7.5046584051174 4.4094801799773 4.5082028490221 4.5914804055268 6.5278751487855 4.0160279800322 4.0270901710905 6.1565116446078 4.443795143019 3.6775346692876 5.1524212591474 8.0568388442933 7.5707887896259 6.2825208134185 4.201167316231 4.4865257477198 4.3524698173137 7.2270964517492 6.6057751517555 7.1498552825065 6.2888488116736 8.2285634668257 8.0306788033451 5.1607179165385 7.9392197037779 5.3550010501933 7.8172005872986 5.5092556167057 7.326892705205 8.1401632557063 6.3456110033156 7.3152292119009 6.9872801640191 7.2433602997059 7.7303303643214 7.8844955269978 6.6575504327863 7.3707610739543 3.8580504868622 5.0026885510891 7.7395537739045 4.4953558983982 8.3878707120827 6.1705515423502 5.5067837606866 5.5601866813217 5.6047528175324 4.8588906414281 4.6084535339106 4.5179728081717 4.149863575895 4.7016806110586 9.4972003973297 6.4706112570085 8.6913505418862 9.0702757200491 4.5995107067198 3.6724394527282 4.7073335164597 4.942665675929 5.4562302221564 4.9493891679378 5.1390859321251 4.8099534151958 5.5708679133762 5.8621160282171 5.8301058805975 5.6735333905749 5.7939447186132 6.1800009855809 5.358272371282 5.031656483457 7.1162592468534 6.9948991820885 4.0499492688403 3.3578220491396 3.449917369162 4.1692550915909 3.8156638102811 5.7291918460505 5.1598218942449 6.0993949198662 5.7197245537334 17.312413688193 14.209229389183 3.8171509280506 4.1515675909792 6.5369822697335 4.7945231783326 3.4278753465764 3.7393465630283 4.6939151399226 6.3259123358266 9.718407670401 5.8114431253605 6.83387896186 4.5823607008374 4.7107740696797 8.8081486654931 4.5068775436178 5.8510417403892 7.4652201837744 4.329282703791 3.895496155002 6.5330292337595 7.3696055706438 4.6145089633539 4.1363822431073 4.1071561448736 5.5984053352466 3.9497162752459 4.4738667718182 3.5118281826229 3.5695413425129 3.8663106006091 7.7766625494784 4.2944204710645 4.9146147563695 4.3062093988566 4.935960869082 3.9736410417503 4.8807729606234 8.4480368478122 3.5363766780662 5.6850007226981 3.4499945490831 3.7673914778025 4.5633350616656 3.8138301886805 3.7038441008894 3.7194022181188 4.0968606444301 3.7506071319661 4.0391799364289 3.7541340736896 6.95900828434 4.5801873578536 3.6466658464108 3.9391555070339 4.3983687821973 4.3700142042929 6.2273930942724 6.4329941934826 6.110183971423 6.3090871858818 5.6440307685242 5.9455791938548 5.3886028810687 5.4877080248576 5.957834957886 5.7868001582941 5.0242541100171 5.3649591499074 5.5816981955998 5.9768177674386 5.6128881589919 3.4079813523826 4.3973347157765 5.3327237842333 4.4076763347064 4.1098420226184 3.7807424830135 3.9005181418433 3.4107387359543 4.1698168387615 3.6913516639032 4.0108561587908 4.6300429579841 10.495260270264 4.0755859826662 4.6453012072586 4.5493362838487 10.654392650024 6.6032826143851 3.6662944082368 3.704078967571 3.435950298836 4.1626663696707 4.4059617128383 18.771018721509 3.6180141552821 3.8383221885739 4.0790985634879 3.4512700933739 4.4933890884628 5.2503002828836 4.6903283154219 4.5872918435436 3.553981471221 4.6324306850579 4.0325161886349 3.5131477515343 4.1674420058166 3.4414622314521 3.6348683453004 4.1803761416611 4.2844105286449 3.4039747509174 3.5749273896834 3.2312636745434 3.3931023118702 3.2470635440638 3.436346204489 3.5396455616379 4.082558977321 4.0509086218836 4.7898543467146 4.9763507197875 3.6433939854438 3.5532463778364 3.4333426615865 4.0319991815371 3.6249435371395 3.5489175406437 3.5002142410883 3.5053929587553 3.4847248718957 3.5750024088949 3.3763542778238 4.1491755571391 3.3305293505162 3.5233144258249 3.9053713257302 3.8604741621724 3.3911903233642 3.3641838863656 3.4965090559112 3.587722379016 3.2487891656529 3.2322321523646 3.3901425575944 3.4087625302037 3.3064672447535 3.4693361906586 3.7594449946932 3.5403615066978 3.6442872723073 3.4109378986599 4.0358554679504 3.4071349961121 3.5811909400431 3.2250692236159 3.3023809610105 3.3887691021872 3.3364801348945 3.4471089719358 3.4141283924429 3.6212022812595 4.2383578784732 3.4723304638718 3.7658527874955 3.3874033850066 3.424606554034 3.6346675885317 4.0404830143948 3.5976708165492 3.5398038180499 3.3976711290208 4.2903582542182 3.6415465876132 4.2720640200022 3.9212025941436 3.5462876868109 3.6528972976631 3.5863823214888 3.2967082367317 3.7418402263135 3.7172783316268 3.6589820717433 3.7612213940632 3.8152391224299 3.5778714860351 4.0911983662794 3.4180478169785 3.724263450698 4.2480703820086 4.1985092335682 3.9290349295407 3.6255037316629 4.0277494127702 3.4186483337143 3.776666370396 3.4715425418099 3.9875870693477 3.7856034802051 3.960299936347 4.2310399180003 3.7445033421154 4.2291757994476 3.8175235988374 3.8481653670559 3.9107507137879 4.0253141905747 4.0116761037768 3.9391282908472 4.167428309983 3.5667216434351 3.626630171111 3.5493503514153 3.6114313691129 3.7676609082355 4.253873721055 4.1227957184703 4.0200865421474 3.6411692156656 3.9043253505392 4.1295513392203 4.0836253165684 4.3248344668627 4.1211252120719 3.7376730477675 3.7978336697212 3.6567097643569 3.8432191771775 4.0833422679517 3.534255208392 3.8612369406989 3.878678233526 3.6908167579637 3.8356231386945 3.7193915239549 3.9923969196372 4.0392540382803 4.0828430543098 3.9522296611883 4.2633908676788 4.2658288880453 4.1649240660902 4.153991423267 4.0872231651398 4.2273742947536 4.2688035498021 4.2223099872015 4.1792106840985 3.9390465107553 3.6272450958885 4.2656948642782 4.1527549624275 3.9691269405382 4.0673946443482 4.1892335745106 4.1930099051521 3.9369859077243 4.0621432141314 4.2784484604876 4.3130495982061 4.3116459710112 4.3795670193555 4.1765327552061 4.3842098829455 4.379219580131 
SCALARS 200.00_1.08 double 1
LOOKUP_TABLE default