# vtk DataFile Version 3.0
d-2__ created by libgimli-v1.1.0
ASCII
DATASET UNSTRUCTURED_GRID
POINTS 570 double
14.5	0	0
14.25	0	0
14.386963504964	-0.201738469428	0
22.399299936458	-0.310870122736	0
22.129824335287	-0.229914148082	0
22.126320781198	-0.518791771445	0
8.472303742627	-0.591754876635	0
8.780507935475	-0.76092407121	0
8.82173151259	-0.349253271447	0
18.663262297679	-0.667179415955	0
18.934786529245	-0.453308328646	0
18.636898038907	-0.29588182328	0
4.016904362632	-0.85330676142	0
4.076038737616	-0.331410355179	0
3.713721571226	-0.470767763626	0
1.89953779852	-0.269343012166	0
1.633800503821	-0.203067612233	0
1.644492760828	-0.441295523531	0
4.368408037607	-0.250833874131	0
4.337474161742	-0.544420985055	0
4.67745607622	-0.378433532554	0
1.406172533733	-0.772361039307	0
1.913288206557	-1.218576310882	0
1.90687689783	-0.651895683444	0
2.5	0	0
2.25	0	0
2.347047126858	-0.185539804102	0
1.374000926997	-0.300418771701	0
1.25	0	0
1.114902662369	-0.201591505098	0
1.067401015567	-0.470108640981	0
5.75	0	0
5.699780065382	-0.324747799653	0
5.924584257371	-0.172748359932	0
0.883560935405	-0.231136840652	0
1	0	0
9	0	0
9.117836368049	-0.253904480787	0
2.625577516194	-0.346770599322	0
17.859079774019	-0.943547525024	0
17.535029634209	-1.703182852412	0
18.338018094476	-1.366069799339	0
19.932263871771	-0.826489183604	0
19.881635677668	-0.346204516721	0
19.622287080959	-0.573770479943	0
1.5	0	0
1.75	0	0
23.25	0	0
23	0	0
23.109690227386	-0.220340974338	0
2.75	0	0
2.142562771237	-0.172460438312	0
2	0	0
23.332392704446	-0.202507275941	0
23.5	0	0
19	0	0
18.75	0	0
18.888143078348	-0.195773419804	0
2.90152418742	-0.185685383897	0
7.612175045312	-0.180627982114	0
7.527150943175	-0.401430797998	0
7.881917737402	-0.30462800112	0
25.630635194756	-0.512020961038	0
25.243766894324	-0.80097755811	0
25.758031115142	-0.952821630144	0
3	0	0
28.84859809239	-0.201276387394	0
29	0	0
28.75	0	0
4	0	0
3.835807353334	-0.199536243303	0
3.106904732949	-0.178783649348	0
29.25	0	0
29.092446172194	-0.305987136665	0
13.5	0	0
13.667851890428	-0.185102765244	0
13.75	0	0
3.75	0	0
14.407363653886	-0.441423674912	0
14.125469935998	-0.279652141152	0
4.25	0	0
5.061980176718	-0.407989246181	0
5.335512032876	-0.269401530321	0
5.113979852892	-0.173834924157	0
11.882046000841	-0.812345557852	0
12.478640631525	-1.146569360669	0
12.244190771573	-0.565936619511	0
3.633270844505	-0.195395238442	0
14	0	0
18.378272976509	-0.514977451159	0
5.5	0	0
9.619519097921	-1.16461851757	0
10.030576753886	-1.587265312651	0
9.961661342999	-1.070235523667	0
5.25	0	0
5	0	0
13.157975569138	-0.830425793913	0
13.83833027638	-1.238601004239	0
13.671302359608	-0.710707966059	0
11.325917093147	-0.8366783502	0
11.612143285947	-0.506264798476	0
6	0	0
7	0	0
6.83842404292	-0.188923754932	0
7.11236984822	-0.391746146843	0
6.631875629497	-0.169178192832	0
6.75	0	0
3.21002197083	-0.595267231049	0
3.445510026908	-0.608065324465	0
3.362318141622	-0.306501255187	0
6.120159502895	-0.164221934939	0
4.538525595924	-0.906226152762	0
13.233775457127	-1.737244787017	0
4.5	0	0
16.138065841822	-0.472802517973	0
16.126746690205	-0.221608117926	0
15.859319180798	-0.326402762318	0
26.080401003391	-0.227842452866	0
26.25	0	0
26	0	0
3.019224421113	-0.401469974918	0
8.234901607028	-0.35771789179	0
8.518285578354	-0.242327591839	0
8.328777073389	-0.153008859619	0
7.25	0	0
7.400656881666	-0.195280611572	0
7.5	0	0
5.385509485898	-0.709154879541	0
5.948697127931	-0.745234910621	0
8.75	0	0
8.5	0	0
8.25	0	0
2.214249105773	-0.404278959534	0
2.896561357202	-0.792481120253	0
9.25	0	0
4.920911116561	-0.192028847294	0
9.651670336652	-0.200847798694	0
9.849824537955	-0.19917205686	0
9.75	0	0
10.095049354068	-0.315754204277	0
10	0	0
3.25	0	0
6.738406513564	-0.710129601907	0
7.121614580011	-0.943026074581	0
11.345829942703	-0.314788260019	0
11.25	0	0
11.104427225455	-0.188863495516	0
6.052412255932	-0.372556729023	0
6.373371846535	-0.274163514827	0
10.25	0	0
10.380281579003	-0.241092027437	0
10.5	0	0
10.75	0	0
10.909079077441	-0.189427130481	0
11	0	0
6.25	0	0
6.5	0	0
4.75	0	0
3.5	0	0
10.672815698565	-0.318467932684	0
10.772487906066	-0.787092734739	0
11.020900486567	-0.439266778492	0
8	0	0
7.75	0	0
11.5	0	0
11.619450354736	-0.231443672836	0
11.75	0	0
8.139317726831	-0.163309591658	0
12.25	0	0
12.158949464947	-0.235415698299	0
12.412455385193	-0.275030800337	0
12.929165084344	-0.221336108042	0
12.686337592177	-0.258437422252	0
12.900449535554	-0.462768612232	0
12.5	0	0
9.405755833308	-0.325979504745	0
9.111697192308	-0.594170467817	0
9.457257345083	-0.753685223931	0
18.101369157139	-0.618560521812	0
18.336839281097	-0.861122419318	0
10.385948631267	-0.570640149046	0
9.5	0	0
13.411260455969	-0.342646276848	0
12.643108055516	-0.590179775368	0
13.137744715761	-0.195204172124	0
13	0	0
21.25	0	0
21.358341816502	-0.326561417551	0
21.5	0	0
13.816492716597	-0.40394453634	0
20.25	0	0
20.423452336785	-0.313445603959	0
20.5	0	0
17.789350393153	-0.390447709085	0
17.987794057246	-0.401472255242	0
17.881276545163	-0.206424156589	0
19.564465692234	-0.270867872644	0
19.290725118801	-0.49926248604	0
16.392319441256	-0.29915360323	0
19.443730892406	-0.923508713428	0
20.457987075478	-0.803203365193	0
20.167450719332	-0.505159975143	0
0.103762538371	-0.253013629949	0
0.267057015134	-0.483604909932	0
0.374713194419	-0.2320817565	0
13.25	0	0
17.415572543912	-0.230682214253	0
17.5	0	0
17.25	0	0
18.108153655084	-0.208141099276	0
18.25	0	0
18	0	0
15.75	0	0
15.544586046819	-0.246453491997	0
15.122708481244	-0.193620038745	0
15.25	0	0
15	0	0
19.75	0	0
24.149237782749	-0.319013340846	0
23.842766599446	-0.577371105011	0
24.183995039967	-0.73159476451	0
13.871646321742	-0.17394291424	0
23.862588150518	-0.245417872715	0
16.84024277193	-0.203626765466	0
16.704049384397	-0.435508179396	0
17.112673188265	-0.38804641709	0
24.75	0	0
24.832880292394	-0.290571430318	0
25	0	0
16.40158555625	-0.755912194683	0
16.850299990829	-0.757941865332	0
17.75	0	0
23.567455674596	-0.325197491724	0
16.25	0	0
16	0	0
22.645812614293	-0.197864648876	0
22.75	0	0
22.5	0	0
16.75	0	0
17	0	0
24	0	0
26.914424714815	-0.337869958787	0
26.621963281699	-0.624626679172	0
26.977877660759	-0.778408201088	0
26.622424322919	-0.264588309935	0
19.34462271879	-0.199329831305	0
19.25	0	0
19.118057075065	-0.225686869553	0
19.5	0	0
26.75	0	0
27	0	0
27.5	0	0
27.604422363523	-0.298869962794	0
27.75	0	0
17.650384190064	-0.227839036584	0
18.343198956448	-0.236734208617	0
18.5	0	0
24.25	0	0
20.143897114391	-0.233773711865	0
25.5	0	0
25.25	0	0
25.344389320279	-0.31693710653	0
21.059546193318	-0.24845941382	0
20	0	0
25.842927934822	-0.248287716678	0
25.75	0	0
25.613904645132	-0.216025146631	0
21	0	0
11.763551406169	-1.481607093928	0
30.981104050195	-0.5526690913	0
30.873880294509	-0.217692518774	0
30.706626759758	-0.34945139905	0
20.75	0	0
20.85240828135	-0.178025243856	0
23.75	0	0
20.66289882074	-0.189089155251	0
30.204950808504	-0.791758966623	0
30.715535843381	-1.149995259266	0
30.543724897762	-0.572259098027	0
30	0	0
30.180216671806	-0.343473673313	0
30.25	0	0
23.229584388362	-0.458653998547	0
29.5	0	0
29.623391954444	-0.322069028408	0
29.75	0	0
21.618913855927	-0.233585823579	0
21.75	0	0
29.348490380579	-0.521100538161	0
29.36294710412	-0.230601226356	0
22	0	0
22.25	0	0
28.25	0	0
28	0	0
28.129259193923	-0.314252106503	0
28.44374413871	-0.484576386004	0
28.100199615755	-0.812038297775	0
28.649230646972	-0.871769248311	0
28.618403654115	-0.227691192115	0
28.5	0	0
28.387848605749	-0.205892081491	0
29.054768525933	-0.708603081552	0
29.344906532636	-0.846887322836	0
26.327430876245	-0.35930637997	0
10.349120516034	-1.04150119828	0
10.894920134778	-1.514321070539	0
24.59640839418	-0.191760546865	0
12.75	0	0
24.5	0	0
13.102881121377	-0.411296235356	0
25.099388239946	-0.214879887129	0
25.97986022697	-0.52841375324	0
24.398993403151	-0.196312410538	0
17.860840746535	-0.577367743328	0
17.566481510048	-0.529340016102	0
26.5	0	0
16.637148248735	-0.188015807345	0
18.183918302467	-0.396443618316	0
27.159348252167	-0.205297590358	0
27.357530053515	-0.198815038154	0
27.25	0	0
15.060354649709	-1.112587998155	0
15.51532665618	-1.043792149387	0
15.178150912169	-0.713100616689	0
10.051363365948	-0.719159376333	0
14.661248691948	-0.27865166374	0
14.75	0	0
27.868836823455	-0.217301839861	0
31	0	0
30.75	0	0
-0.020273477909	-1.415389842481	0
1.054972770973	-1.487485199502	0
0.512583677021	-1.0438154777	0
0.75	0	0
2.361419414365	-0.794513604096	0
29.890297721653	-0.2433406165	0
30.473599299501	-0.238575611274	0
30.5	0	0
30.660802173874	-0.161931182737	0
28.783812899585	-0.467926883932	0
4.937022539393	-0.72440615077	0
6.696914540879	-0.380672503721	0
7.434272221796	-0.695675918868	0
15.339606453815	-0.166204802571	0
15.281953315711	-0.388999642276	0
11.893544445085	-0.335972898148	0
12	0	0
9.753796445798	-0.478866225926	0
7.720012958977	-0.638314519759	0
21.871398197179	-0.313006985103	0
21.615176662754	-0.521922347305	0
21.856785525528	-0.665128848631	0
20.792152536902	-0.448319093295	0
21.109577821412	-0.527879642114	0
21.360297691811	-0.734200004244	0
15.547854961707	-0.580173571081	0
24.496861814148	-0.467031445896	0
25.067351422649	-0.463427753535	0
24.81263825963	-0.684738154192	0
22.865620821195	-0.218348593093	0
23.443705587002	-0.773171720633	0
27.277617447467	-0.489224417775	0
27.863714790534	-0.471681393437	0
26.239117668995	-0.863279739365	0
29.896797054636	-0.547765129844	0
29.612773839625	-0.699757135752	0
29.867172666547	-0.87444432816	0
29.610354212963	-1.521444655905	0
29.59548165142	-1.071765512911	0
29.115129171034	-1.220660174798	0
31.345359428525	-0.458952144926	0
31.144859415042	-0.241304201582	0
15.919565295974	-0.746550096707	0
16.063006820294	-1.289595303187	0
16.5	0	0
14.900855313538	-0.178071167744	0
14.161016743654	-0.72559708689	0
19.011498044983	-0.834202892304	0
16.760433281999	-1.263698818643	0
17.280361389946	-0.931704507314	0
-0.627742252535	-0.296285438777	0
-1	0	0
-1	-0.5	0
0.625738545692	-0.228405936136	0
0.5	0	0
3.313957665883	-0.865581185485	0
3.619156095452	-0.800599314657	0
[...]
CELL_DATA 986
SCALARS 100.00_0.17 double 1
LOOKUP_TABLE default
9.4445485591675 8.6171834321185 8.1920644907151 7.2788357729171 6.5602705088839 8.9787064046928 8.3304789804463 6.4264185508364 9.2084469176116 7.9683485855063 7.8290406072997 8.7487910926448 8.0191258991159 9.2829478954128 9.4673212404566 7.8169986583375 4.926821822656 8.1093704980492 9.7372480885451 9.979006793689 9.8233541854622 9.3211488563867 9.5541213348162 9.1116729792432 9.1370924517253 9.2412204640497 9.1125321990154 6.5588779196401 9.0727802479795 8.820915162455 7.8155532178185 8.9664415291202 8.8411814932051 9.7547329310494 7.1801246216574 9.583227786255 9.6790712210434 8.756751453369 6.0623081601937 7.1155265530271 10.107771908241 6.9173694201842 9.3389413561687 5.2121466429963 9.0707838570075 8.4921382936157 6.8333198796861 7.1054317949858 8.5811625421444 8.2492914432025 8.1516601970163 6.7450951054799 6.5177340442581 8.8674944957485 7.1287449541664 8.957407345265 5.2204013180162 10.653298362031 8.5670649372645 6.6742056688878 8.9458691496792 8.4844323795888 9.851024812449 9.8851764439315 11.446151253186 11.02019943453 7.6814348053437 7.1244185828013 9.7995894985316 8.0766481891054 10.302056527464 9.4751816155298 9.5233178285177 10.055963956406 9.1120432593065 7.4463225995197 9.2516665020019 9.171035281473 10.703631471376 9.7840442185533 8.9637978017159 6.4491956693721 9.475598921656 8.3528559336583 10.3407391932 10.993749394547 8.3940126722118 9.591571322279 11.502464699568 11.063467846801 8.9553715662984 8.9634033714467 8.131671649861 9.0161323286853 8.8226034290771 10.027040429571 10.191357459094 9.8998076946829 9.2565747582343 9.1550168782636 10.728039847684 9.285887919797 7.9621886136603 11.867236767408 7.1809964729751 6.4313403293586 9.2015324400166 7.5210723734996 8.2925632003124 8.1964308506823 7.6547021905071 8.8232337084884 8.4434871791878 8.2522690664998 8.981274295788 11.351434234679 8.1931054918955 9.7284956399716 8.7231921076332 8.8743553474981 7.4290650110795 10.014195670177 8.413155592443 7.4173669216369 7.9577986323013 9.5302602832673 7.9743914152023 7.0415876183939 9.1846394812339 8.6960208147255 7.5654688424724 9.654070026011 9.1956434053031 9.6546477608614 6.9522078531193 9.3106362166004 7.7066718425774 9.8246150682966 9.2008089126963 8.0700358027848 9.2385388924236 7.7585123890054 8.6150343605321 8.8890688671154 10.940635679567 10.269922969003 8.2872959068151 6.5050428185418 8.2198663171954 7.2039740315612 10.059641443813 10.620518871463 7.7496429761872 9.7492474837556 8.0982712131042 9.6763876710758 9.3219786342374 7.6385919204242 7.7321454939454 7.6875652521653 11.255854582262 8.9110214016309 8.1513479811595 11.907040193801 9.2829936913262 8.3056682561632 5.7662251449818 7.8789805119864 10.253761921665 8.6820666603584 10.516088930263 9.7693161284568 6.3204969078242 7.5395159038171 8.8479052039367 8.4315431866191 9.1977579121984 8.7732785965469 7.8019473069786 8.3007566890791 9.5713152690865 8.4280886013681 9.0077503501017 6.6186413963965 6.9709779492777 9.8655142086721 8.7548255723207 9.4725357705869 7.9157904768511 6.6457301595088 7.328205706579 6.0233484450906 8.4825573080425 6.1332027407588 8.75875478371 8.7720080593683 6.1393985167036 8.7676978057886 8.6859363727653 8.5779533318534 9.1952129180513 8.3544093711099 6.6053244342156 8.3537084462929 8.8424809099062 7.0895708060711 8.5693917906729 8.7439781804764 8.496375069311 9.1062169471237 8.7707267129608 10.062970409534 7.914463247422 7.3417243547404 7.8359116071818 7.9140957389168 5.7269433643482 7.9406318729911 6.0524520177142 8.0611227273965 8.8325628425282 9.0133340461969 9.3190983958644 10.251874654428 8.0531119143113 9.2178527499184 8.7664406092552 8.2312390981142 8.3146422604223 9.6497992321073 8.7762246248228 5.5074806297735 8.4289225356865 8.4705204046776 8.1934993378848 8.9954187905228 8.753817850554 6.9525907141456 8.2065657827072 8.3329154877738 7.6130673707083 7.3266765451125 9.554258727466 8.741756194143 8.3034678471392 9.5754405023895 7.1649442120978 8.4450911551323 8.3215878501226 7.8746272187939 7.1316803972761 7.77714594672 6.825041869409 8.4388063524017 9.1417845577272 7.0600860595151 8.8144090681449 8.8863817408822 9.7816506889997 7.403146254406 8.568860915737 8.4633350569971 9.8125318956551 8.9673198360856 7.4538178697539 10.127752176592 7.9352921818277 9.2404608233149 6.7165000371978 7.1409492251601 8.6427856198141 9.3750112470636 8.6616380903262 8.6281178929681 8.9654954049299 9.53883261544 7.4355702432278 8.3119760872086 9.0607580357975 8.1727642298376 7.9327913223805 9.0225101784158 10.233739975745 10.114400897239 6.8674038223333 10.384030165039 8.8768628701656 10.156599269008 11.153455728304 9.3818243695629 8.3063532539567 7.8565924619657 7.5378488266983 9.5581069454451 8.2997824194775 9.3765529199226 8.1734789951998 9.0577705275534 10.435701278927 8.992278393505 7.2194101251443 9.3664918652392 10.910944864159 9.8038350796002 6.6979044796103 7.614750824396 8.392517581225 9.3368277702034 8.2161702311511 8.921807703015 8.6170697510342 8.9191226421075 7.9518158066759 8.1479170517052 8.4083786805106 7.8139256956791 8.7963183498257 7.3468924722729 7.5357087973905 8.8130593023974 7.6765273340985 8.2814582889972 7.8936129364336 7.6205471436368 7.9772125378721 7.7887357981431 9.7569028772253 6.9240868849872 6.4089118667542 5.1483803968656 7.6523006656226 6.9909647362628 8.1182017903458 8.1206588471844 7.5078433530747 8.2953469809021 8.0308576297713 8.5483323458852 7.5153182924628 9.5326415019685 5.5904043411443 6.0787307881288 10.75596866608 8.7897854024552 9.7366059102545 9.2104539363012 9.5856041944996 10.416852444246 8.6299460410991 7.235320350364 8.3877771287691 6.7170762501908 8.6188099721203 6.1035107037938 7.1249975103215 6.5169159985699 6.3847538963886 7.5630857534011 6.4909022670612 7.8808903113563 7.4148884593331 5.7187379651035 7.4711901361188 8.3686868882018 9.3196572350737 6.9841021200376 6.2954114014306 5.8957997863203 7.3179442688777 9.5567899214226 9.4536610035887 7.4415480248043 7.190498220786 6.4878738188187 7.6725309786288 8.5640153383382 7.4452286908984 9.5284864655606 9.4310579395854 6.5790455255712 5.7476439069107 7.1599000558431 8.7659889495761 8.2190331538348 10.335365880785 11.247168828256 8.0594236900823 9.6029440155337 6.997630734718 10.537790790349 8.3593491605199 7.7356014604844 6.343770183529 8.8599379481812 7.6776333945136 9.1418486927682 7.3468530829273 8.5508719555939 7.4510571694699 8.4137435831348 9.3545400426371 9.3755368703028 8.5778893620209 7.792898321758 6.4467147230701 10.164147074051 6.4130209930147 8.7489022838467 9.8748907145244 7.2710967989239 10.603909593896 8.4044238887072 7.3588887389216 7.5638846039059 8.5570514303532 7.8100747117907 7.0412010315519 6.9978584664098 6.0218530229584 7.3245210594167 6.2650742462885 8.8014810592189 8.3968595355938 6.9180454059902 7.0831855893675 7.7872491697493 6.6287346285474 6.618463859179 7.3613060593958 6.8973399320899 7.1585740245667 9.4251186815416 8.716930725388 8.0766797071406 7.6222995464747 8.3021268246909 5.6374933278875 7.5531165561077 5.283502736429 7.3622593819788 5.6645127951831 7.3617613938091 8.4196250330493 8.1011370336157 5.9536701194768 8.2588038963852 4.93285052618 7.6910955949533 6.7820879444984 7.2290889470314 9.4800370154604 9.7341379514585 9.6183934669206 7.1263760871212 5.8328498985214 4.6228908562464 7.2453147244622 9.0811663567104 7.7992884665513 7.8267293917145 7.5376693297582 7.9413567160887 7.9823881906584 7.3516844130017 6.8089031651373 5.1839542766105 6.2239625929471 6.9648417791539 5.8216960642777 5.3098932814311 5.9633521313694 8.7461695049437 6.8417837354631 5.242482696496 4.6958088961809 9.4423289020084 7.7057229327944 7.2710364674092 6.9304834125597 5.9043375292465 6.8450926205945 5.7718939033023 5.9396490355996 9.3922398238811 8.0518096327559 7.0349674576129 7.497390367816 9.0544193615639 7.4112253479481 7.5167798465544 5.0784761958122 8.4416083536311 9.6939233460191 9.960637389842 6.9166198701939 6.1150967314918 5.1053090821012 4.2159933964404 6.7888840680064 8.5114727828729 6.7137644762621 6.7866303598519 5.6775847458716 6.6391158663584 7.6656366328576 9.6503758993448 5.7066913598209 8.539867064884 9.5157847478887 4.4619492967238 8.084385925534 11.613681813181 8.8358671001077 5.772844504603 7.7323368382621 7.7145047656741 6.6191292016925 6.0628408253571 5.4475851540101 8.7899463187172 8.6664835837782 5.414391643602 7.3521537572957 7.3797775769976 6.1401777313161 5.7111769200368 5.1270585098963 8.7413854784872 8.0052595654085 7.5218987232989 6.7968321455618 7.5694657921361 7.1129719355287 7.9348677445594 6.7843752616334 7.4487880508793 8.3658326484058 8.0270817605412 5.2969286977571 3.9373082158998 7.7356945359108 6.1195496567131 7.7723092821648 8.5831801304387 5.6539895812174 8.3837857461403 4.1961351578417 6.1674102011734 3.8490689647682 4.6478505571857 7.7364720874597 5.7308899764675 6.896567161436 5.7630366195277 7.6137367348928 7.3507471130275 6.2692932086235 7.3893806411918 5.5126475449259 6.1995772769463 6.4495448990969 6.0563073727899 7.6798880998763 5.9161918687159 6.9637056312377 8.7408901282404 5.5838970469933 4.9915363841105 7.1147704819707 6.777209245129 9.8720758647805 6.1041554834246 7.7542522925971 7.0632743802347 8.926968159363 8.7444300186778 5.8677435355039 4.2688778873874 7.5527253066832 6.7937070027972 6.6982225426173 6.7505026441875 9.5806090955495 7.9315827415956 5.2968788195813 7.5193736370086 8.6841076096934 7.5967762108088 7.8536489730661 7.169546440502 7.2708772019762 6.6266311580514 4.3395175251748 6.5946305518426 4.5568752309055 7.6685556924421 6.9651372651816 6.9162102364704 5.801741379338 6.5833944261004 7.1342240254975 6.9974774868299 7.0240087581029 6.0058349496455 4.9586472658333 4.1584464238687 5.1677858693434 6.8217994870601 8.9296266817888 7.0663409623435 6.3490672881311 6.6805283838624 5.5467098326172 10.05308536594 5.4858952746636 9.4101942994186 7.7436180098818 4.0165078583545 8.1349821120868 7.8038724115988 6.9557882969862 7.7436352218701 6.9035007140162 5.9649492135442 5.9789611279998 5.592780091215 6.8558312447348 6.7755125461794 4.2398271063955 5.1264003447638 4.4937584319973 5.6120895775134 4.9577188187126 8.4721130135559 5.8171855740458 7.7703842383333 4.9943892856711 5.0784386976701 5.3767702149204 7.2976827379206 4.6345686053211 4.5706606421013 6.5957880635552 5.3129227120081 3.9649638725758 5.8307031044519 8.2829714984469 8.1374688547757 6.7297576360376 4.7700132100675 5.2114855967356 4.7759583136161 7.1771483128846 6.5846279390335 7.1049081285179 6.666167014732 7.965488670794 7.6424352225431 5.673968783502 7.6780561570932 5.8392392673168 7.5580425815179 5.7289602405893 7.2200228097305 7.7970422644604 6.4368858388438 7.2386345041495 6.9644585615265 7.1972478752572 7.5617815327152 7.7055375349775 6.7010851901761 7.3014242994434 4.4089514894213 5.6754987883178 7.6276644900848 4.8064736594624 8.5621380191012 6.6951104592249 6.1971240869344 6.1952806090505 6.584382740429 5.5447383344001 5.10142409148 5.0063328935854 5.0214166760741 5.1804912414909 9.0898766054237 8.4245645698758 8.9190300301179 8.6243454778222 4.9716804362309 3.8155797470097 5.261493904522 5.7092242513986 6.1247754636969 5.5917004867067 5.7528565727645 5.2374763015488 6.0022794934987 6.3114003945828 6.0746501092908 6.0098268906663 6.0862702280899 6.4111542819624 5.7203124441824 5.2858450734377 7.0893498232895 6.9854669168096 4.7981982444912 3.6301978675757 3.4556570863067 4.5133655300725 4.2358889405702 6.7114118649976 5.9800342397303 7.0145872610219 6.2992945234309 10.366856497884 10.229151610134 4.2227192591285 4.6403660325841 7.2120685531013 5.542647037082 4.0878811722763 4.1663933561168 5.3018105146525 6.7413070431879 8.4771252350121 6.4858515073334 7.2128155392496 5.4377401771342 5.3935726328224 8.678081282494 5.0163893961077 6.3753922058664 9.115359353538 5.1671546428227 4.4554471721664 7.1236534046201 7.5092440489864 5.2368336737852 4.7152607237199 4.6156697216195 6.2495048635562 3.9706961131589 5.1319678118403 3.8328510030077 3.7707196630545 4.2538751431685 8.0055186475739 4.9806339164494 5.6501606161211 4.9042915726209 5.3635686899654 4.6462354288194 5.7366379814136 7.7836006427911 3.882165710859 6.2188698739492 3.5635456448259 4.1585328932326 5.2875716807412 4.5460308525342 4.0796994075969 4.1590343039852 4.5460386410335 4.4009821807823 4.9342284981963 4.0510416923122 7.1642445653753 5.2082525128767 3.9253325832781 4.3145645066514 4.9434300770897 4.8884890688813 6.7487184397839 6.8432881806032 6.6841762139065 6.894505817335 6.2264041481289 6.5616328398018 5.9020573974292 6.0121772574875 6.5702083392029 6.3830812084252 5.3420323917907 5.8934776299134 6.0548811680511 6.5476367089009 6.0869257703401 3.6655912777498 4.8816912890433 5.6238881216285 4.7373274637349 4.5501792224426 4.1938846218618 4.327083847182 4.0009821101204 4.7053707279543 4.006893549197 4.6101831024123 5.0992170001412 9.7832966549008 4.5924828989067 5.434268538594 5.2201630906505 8.1242706144052 7.3074879190373 3.9496991619219 3.8588683314716 3.6346075969242 4.6042347418645 5.1041466359029 10.552184722953 3.9658531735734 4.3726651046241 4.6056923057757 3.5054434960253 4.6263413993601 5.6412933859777 4.9248014941505 4.8832468217485 4.2691778207173 4.91492834428 4.5215894067104 3.9841706554475 4.9179108472138 3.6641410898358 3.9830747329801 4.7226560985962 4.3567968655499 3.5365787478808 3.9187146839434 3.6292082902224 3.8140397631247 3.7379564991411 3.6853692621959 3.7488009513775 4.5095921712744 4.3521291205499 5.4413057179816 5.5802404230629 3.9480484414022 3.6051264155937 3.5198668562623 4.2867088593632 3.6342636481745 3.660810411383 3.6776322341001 3.6871644127167 3.7554237346474 4.1360525181345 3.7950251915552 4.4369708678566 3.4782266683648 3.5137581783542 4.2520046020727 4.1357724056136 3.4858729444472 3.472611654195 3.6759039904886 3.6898875151619 3.5765902907518 3.6626447317351 3.5919837761702 3.7504669683481 3.7833390218285 3.6048585259062 4.0802749505546 3.6768068719494 3.7411753130184 3.5183444018071 4.2710863330101 3.4831990830923 3.5802273004267 3.5200337144931 3.4520001650236 3.4531536131803 3.5763397384568 3.5653207499485 3.7271780798118 3.7054778044293 4.4590577815875 3.5465182794309 3.9940585983565 3.4303246788906 3.5108759650351 3.8202944980936 4.0903354659269 3.5857122887656 3.536527422732 3.4449975941765 4.5949328658281 3.9228484186316 4.103250944784 4.0194160605355 3.5752267043961 3.5215478385822 3.4748236702265 3.4733433803321 4.0308075450556 3.6228880097003 3.6487454653234 3.7275041753225 4.1681227371718 3.8384191662956 4.1482822209161 3.440756001134 3.5517884936031 4.4120612060118 4.2491306311824 3.8272222727176 3.6313213149743 3.9679562912629 3.4346560996309 3.7765142273075 3.6586202307962 4.2172441328873 3.6459584218022 3.7430333637803 4.3058468505558 3.6839335737778 4.2920406126321 3.8281547447289 3.7872971886318 4.1736628399332 4.295018969399 4.2007632891718 3.7234909795101 3.9826519438314 3.5483804696818 3.5071842465103 3.5472264521798 3.5852150110704 3.7230783592692 4.3117022967843 4.1082190647265 4.0233718359855 3.8336252672036 4.0444211143725 3.9758979237533 4.3005653375904 4.4429080531711 4.3142886805299 3.7243251883589 3.6924159575883 3.6466477255697 3.8245693648169 4.1219925227914 3.527165322628 3.6461287992688 3.8611764758936 3.6874914842494 3.848775042592 3.7255351867916 4.0308232803858 4.0810985676264 4.144965551607 3.9871088846533 4.2657192566378 4.3624778145195 4.2402352274225 4.2189219753649 4.1479274143548 4.3191950489118 4.3587428144497 4.316066250548 4.258291907766 3.8497336890786 3.6445972586912 4.3046513014258 3.9581230747171 3.8230508022408 3.9761801438397 4.0888635944264 4.2581899250119 3.962932584125 4.0987657270018 4.3294692533632 4.2621088246861 4.2594518788221 4.308792751526 4.0565157925601 4.3106375454933 4.2755039613586 
SCALARS 200.00_0.37 double 1
LOOKUP_TABLE default