# vtk DataFile Version 3.0
d-2__ created by libgimli-v1.1.0
ASCII
DATASET UNSTRUCTURED_GRID
POINTS 570 double
14.5	0	0
14.25	0	0
14.386963504964	-0.201738469428	0
22.399299936458	-0.310870122736	0
22.129824335287	-0.229914148082	0
22.126320781198	-0.518791771445	0
8.472303742627	-0.591754876635	0
8.780507935475	-0.76092407121	0
8.82173151259	-0.349253271447	0
18.663262297679	-0.667179415955	0
18.934786529245	-0.453308328646	0
18.636898038907	-0.29588182328	0
4.016904362632	-0.85330676142	0
4.076038737616	-0.331410355179	0
3.713721571226	-0.470767763626	0
1.89953779852	-0.269343012166	0
1.633800503821	-0.203067612233	0
1.644492760828	-0.441295523531	0
4.368408037607	-0.250833874131	0
4.337474161742	-0.544420985055	0
4.67745607622	-0.378433532554	0
1.406172533733	-0.772361039307	0
1.913288206557	-1.218576310882	0
1.90687689783	-0.651895683444	0
2.5	0	0
2.25	0	0
2.347047126858	-0.185539804102	0
1.374000926997	-0.300418771701	0
1.25	0	0
1.114902662369	-0.201591505098	0
1.067401015567	-0.470108640981	0
5.75	0	0
5.699780065382	-0.324747799653	0
5.924584257371	-0.172748359932	0
0.883560935405	-0.231136840652	0
1	0	0
9	0	0
9.117836368049	-0.253904480787	0
2.625577516194	-0.346770599322	0
17.859079774019	-0.943547525024	0
17.535029634209	-1.703182852412	0
18.338018094476	-1.366069799339	0
19.932263871771	-0.826489183604	0
19.881635677668	-0.346204516721	0
19.622287080959	-0.573770479943	0
1.5	0	0
1.75	0	0
23.25	0	0
23	0	0
23.109690227386	-0.220340974338	0
2.75	0	0
2.142562771237	-0.172460438312	0
2	0	0
23.332392704446	-0.202507275941	0
23.5	0	0
19	0	0
18.75	0	0
18.888143078348	-0.195773419804	0
2.90152418742	-0.185685383897	0
7.612175045312	-0.180627982114	0
7.527150943175	-0.401430797998	0
7.881917737402	-0.30462800112	0
25.630635194756	-0.512020961038	0
25.243766894324	-0.80097755811	0
25.758031115142	-0.952821630144	0
3	0	0
28.84859809239	-0.201276387394	0
29	0	0
28.75	0	0
4	0	0
3.835807353334	-0.199536243303	0
3.106904732949	-0.178783649348	0
29.25	0	0
29.092446172194	-0.305987136665	0
13.5	0	0
13.667851890428	-0.185102765244	0
13.75	0	0
3.75	0	0
14.407363653886	-0.441423674912	0
14.125469935998	-0.279652141152	0
4.25	0	0
5.061980176718	-0.407989246181	0
5.335512032876	-0.269401530321	0
5.113979852892	-0.173834924157	0
11.882046000841	-0.812345557852	0
12.478640631525	-1.146569360669	0
12.244190771573	-0.565936619511	0
3.633270844505	-0.195395238442	0
14	0	0
18.378272976509	-0.514977451159	0
5.5	0	0
9.619519097921	-1.16461851757	0
10.030576753886	-1.587265312651	0
9.961661342999	-1.070235523667	0
5.25	0	0
5	0	0
13.157975569138	-0.830425793913	0
13.83833027638	-1.238601004239	0
13.671302359608	-0.710707966059	0
11.325917093147	-0.8366783502	0
11.612143285947	-0.506264798476	0
6	0	0
7	0	0
6.83842404292	-0.188923754932	0
7.11236984822	-0.391746146843	0
6.631875629497	-0.169178192832	0
6.75	0	0
3.21002197083	-0.595267231049	0
3.445510026908	-0.608065324465	0
3.362318141622	-0.306501255187	0
6.120159502895	-0.164221934939	0
4.538525595924	-0.906226152762	0
13.233775457127	-1.737244787017	0
4.5	0	0
16.138065841822	-0.472802517973	0
16.126746690205	-0.221608117926	0
15.859319180798	-0.326402762318	0
26.080401003391	-0.227842452866	0
26.25	0	0
26	0	0
3.019224421113	-0.401469974918	0
8.234901607028	-0.35771789179	0
8.518285578354	-0.242327591839	0
8.328777073389	-0.153008859619	0
7.25	0	0
7.400656881666	-0.195280611572	0
7.5	0	0
5.385509485898	-0.709154879541	0
5.948697127931	-0.745234910621	0
8.75	0	0
8.5	0	0
8.25	0	0
2.214249105773	-0.404278959534	0
2.896561357202	-0.792481120253	0
9.25	0	0
4.920911116561	-0.192028847294	0
9.651670336652	-0.200847798694	0
9.849824537955	-0.19917205686	0
9.75	0	0
10.095049354068	-0.315754204277	0
10	0	0
3.25	0	0
6.738406513564	-0.710129601907	0
7.121614580011	-0.943026074581	0
11.345829942703	-0.314788260019	0
11.25	0	0
11.104427225455	-0.188863495516	0
6.052412255932	-0.372556729023	0
6.373371846535	-0.274163514827	0
10.25	0	0
10.380281579003	-0.241092027437	0
10.5	0	0
10.75	0	0
10.909079077441	-0.189427130481	0
11	0	0
6.25	0	0
6.5	0	0
4.75	0	0
3.5	0	0
10.672815698565	-0.318467932684	0
10.772487906066	-0.787092734739	0
11.020900486567	-0.439266778492	0
8	0	0
7.75	0	0
11.5	0	0
11.619450354737	-0.231443672836	0
11.75	0	0
8.139317726831	-0.163309591658	0
12.25	0	0
12.158949464947	-0.235415698299	0
12.412455385193	-0.275030800337	0
12.929165084344	-0.221336108042	0
12.686337592177	-0.258437422252	0
12.900449535554	-0.462768612232	0
12.5	0	0
9.405755833308	-0.325979504745	0
9.111697192308	-0.594170467817	0
9.457257345083	-0.753685223931	0
18.101369157139	-0.618560521812	0
18.336839281097	-0.861122419318	0
10.385948631267	-0.570640149046	0
9.5	0	0
13.411260455969	-0.342646276848	0
12.643108055516	-0.590179775368	0
13.137744715761	-0.195204172124	0
13	0	0
21.25	0	0
21.358341816502	-0.326561417551	0
21.5	0	0
13.816492716597	-0.40394453634	0
20.25	0	0
20.423452336785	-0.313445603959	0
20.5	0	0
17.789350393153	-0.390447709085	0
17.987794057246	-0.401472255242	0
17.881276545163	-0.206424156589	0
19.564465692234	-0.270867872644	0
19.290725118801	-0.49926248604	0
16.392319441256	-0.29915360323	0
19.443730892406	-0.923508713428	0
20.457987075478	-0.803203365193	0
20.167450719332	-0.505159975143	0
0.103762538371	-0.253013629949	0
0.267057015134	-0.483604909932	0
0.374713194419	-0.2320817565	0
13.25	0	0
17.415572543912	-0.230682214253	0
17.5	0	0
17.25	0	0
18.108153655084	-0.208141099276	0
18.25	0	0
18	0	0
15.75	0	0
15.544586046819	-0.246453491997	0
15.122708481244	-0.193620038745	0
15.25	0	0
15	0	0
19.75	0	0
24.149237782749	-0.319013340846	0
23.842766599446	-0.577371105011	0
24.183995039967	-0.73159476451	0
13.871646321742	-0.17394291424	0
23.862588150518	-0.245417872715	0
16.84024277193	-0.203626765466	0
16.704049384397	-0.435508179396	0
17.112673188265	-0.38804641709	0
24.75	0	0
24.832880292394	-0.290571430318	0
25	0	0
16.40158555625	-0.755912194683	0
16.850299990829	-0.757941865332	0
17.75	0	0
23.567455674596	-0.325197491724	0
16.25	0	0
16	0	0
22.645812614293	-0.197864648876	0
22.75	0	0
22.5	0	0
16.75	0	0
17	0	0
24	0	0
26.914424714815	-0.337869958787	0
26.621963281699	-0.624626679172	0
26.977877660759	-0.778408201088	0
26.622424322919	-0.264588309935	0
19.34462271879	-0.199329831305	0
19.25	0	0
19.118057075065	-0.225686869553	0
19.5	0	0
26.75	0	0
27	0	0
27.5	0	0
27.604422363523	-0.298869962794	0
27.75	0	0
17.650384190064	-0.227839036584	0
18.343198956448	-0.236734208617	0
18.5	0	0
24.25	0	0
20.143897114391	-0.233773711865	0
25.5	0	0
25.25	0	0
25.344389320279	-0.31693710653	0
21.059546193318	-0.24845941382	0
20	0	0
25.842927934822	-0.248287716678	0
25.75	0	0
25.613904645132	-0.216025146631	0
21	0	0
11.763551406169	-1.481607093928	0
30.981104050195	-0.5526690913	0
30.873880294509	-0.217692518774	0
30.706626759758	-0.34945139905	0
20.75	0	0
20.85240828135	-0.178025243856	0
23.75	0	0
20.66289882074	-0.189089155251	0
30.204950808504	-0.791758966623	0
30.715535843381	-1.149995259266	0
30.543724897762	-0.572259098027	0
30	0	0
30.180216671806	-0.343473673313	0
30.25	0	0
23.229584388362	-0.458653998547	0
29.5	0	0
29.623391954444	-0.322069028408	0
29.75	0	0
21.618913855927	-0.233585823579	0
21.75	0	0
29.348490380579	-0.521100538161	0
29.36294710412	-0.230601226356	0
22	0	0
22.25	0	0
28.25	0	0
28	0	0
28.129259193923	-0.314252106503	0
28.44374413871	-0.484576386004	0
28.100199615755	-0.812038297775	0
28.649230646972	-0.871769248311	0
28.618403654115	-0.227691192115	0
28.5	0	0
28.387848605749	-0.205892081491	0
29.054768525933	-0.708603081552	0
29.344906532636	-0.846887322836	0
26.327430876245	-0.35930637997	0
10.349120516034	-1.04150119828	0
10.894920134778	-1.514321070539	0
24.59640839418	-0.191760546865	0
12.75	0	0
24.5	0	0
13.102881121377	-0.411296235356	0
25.099388239946	-0.214879887129	0
25.97986022697	-0.52841375324	0
24.398993403151	-0.196312410538	0
17.860840746535	-0.577367743328	0
17.566481510048	-0.529340016102	0
26.5	0	0
16.637148248735	-0.188015807345	0
18.183918302467	-0.396443618316	0
27.159348252167	-0.205297590358	0
27.357530053515	-0.198815038154	0
27.25	0	0
15.060354649709	-1.112587998155	0
15.51532665618	-1.043792149387	0
15.178150912169	-0.713100616689	0
10.051363365948	-0.719159376333	0
14.661248691948	-0.27865166374	0
14.75	0	0
27.868836823455	-0.217301839861	0
31	0	0
30.75	0	0
-0.020273477909	-1.415389842481	0
1.054972770973	-1.487485199502	0
0.512583677021	-1.0438154777	0
0.75	0	0
2.361419414365	-0.794513604096	0
29.890297721653	-0.2433406165	0
30.473599299501	-0.238575611274	0
30.5	0	0
30.660802173874	-0.161931182737	0
28.783812899585	-0.467926883932	0
4.937022539393	-0.72440615077	0
6.696914540879	-0.380672503721	0
7.434272221796	-0.695675918868	0
15.339606453815	-0.166204802571	0
15.281953315711	-0.388999642276	0
11.893544445085	-0.335972898148	0
12	0	0
9.753796445798	-0.478866225926	0
7.720012958977	-0.638314519759	0
21.871398197179	-0.313006985103	0
21.615176662754	-0.521922347305	0
21.856785525528	-0.665128848631	0
20.792152536902	-0.448319093295	0
21.109577821412	-0.527879642114	0
21.360297691811	-0.734200004244	0
15.547854961707	-0.580173571081	0
24.496861814148	-0.467031445896	0
25.067351422649	-0.463427753535	0
24.81263825963	-0.684738154192	0
22.865620821195	-0.218348593093	0
23.443705587002	-0.773171720633	0
27.277617447467	-0.489224417775	0
27.863714790534	-0.471681393437	0
26.239117668995	-0.863279739365	0
29.896797054636	-0.547765129844	0
29.612773839625	-0.699757135752	0
29.867172666547	-0.87444432816	0
29.610354212963	-1.521444655905	0
29.59548165142	-1.071765512911	0
29.115129171034	-1.220660174798	0
31.345359428525	-0.458952144926	0
31.144859415042	-0.241304201582	0
15.919565295974	-0.746550096707	0
16.063006820294	-1.289595303187	0
16.5	0	0
14.900855313538	-0.178071167744	0
14.161016743654	-0.72559708689	0
19.011498044983	-0.834202892304	0
16.760433281999	-1.263698818643	0
17.280361389946	-0.931704507314	0
-0.627742252535	-0.296285438777	0
-1	0	0
-1	-0.5	0
0.625738545692	-0.228405936136	0
0.5	0	0
3.313957665883	-0.865581185485	0
3.619156095452	-0.800599314657	0
[...]
CELL_DATA 986
SCALARS 100.00_2.02 double 1
LOOKUP_TABLE default
5.4606470960876 7.2592094271221 7.2363339279145 6.4598135720096 4.6502553809194 7.5489100397055 9.4374178211292 6.1875396216316 8.2760054777766 6.6706806458383 7.6473623533332 5.7072932607327 9.1750193518837 11.268588973003 8.4546943332939 6.030240099052 3.5005545217567 8.1364559348972 6.7332133517125 6.0327705072527 7.7780024714283 8.9135369367166 6.1087050717498 7.3729941537455 31.04016238243 7.3532570171277 9.2295304101439 5.726799886199 6.7536792017872 7.7279765384981 6.2060321427241 11.65966937929 6.7459491808032 13.625247194716 3.2501603459538 8.9744140307695 16.314892108205 8.7697676677284 4.3430490549727 3.2903255166863 5.7999987163789 4.049147152639 8.8552299492977 3.7070634051051 11.430192793441 9.5248100930736 5.510977762326 5.2868938950754 5.3720333150627 6.8114447538949 7.5444623191 3.398649059639 5.0976986779367 9.2028284114739 6.7714974479844 5.4302243628808 3.5961569762346 20.464893143592 6.2992792819162 3.4079284713261 5.9058878979529 8.3728767417471 12.23813103091 6.772125193596 22.969778117434 21.972742862097 6.548084694452 7.1553798531031 8.3156219859142 10.871467689289 9.0036528207491 14.970972015468 16.184025922098 13.152269792984 8.6078128720152 7.1329583823259 15.328137977589 8.4940671700972 13.401172976951 13.095845450133 18.423877574697 4.2281460106326 10.303579966205 8.7340965889568 6.0426293849108 13.631069183521 10.166539980832 6.1660833213122 27.355606404923 20.892101137011 6.0894835782811 6.8498389748956 13.771064926114 13.302771326173 8.6821328066175 7.9957205378636 8.2903458729715 8.8922748519021 15.073946184672 9.0848647470735 19.176957138318 5.3940836206592 6.4619326223557 20.491576709594 4.7737628227217 3.5408464181157 8.7654541975125 6.682247118456 7.065937666918 8.872468603844 5.6119451960951 8.4162471468613 8.2515705134317 4.3522449552719 8.6156088947948 7.8752857142826 7.0869508359433 6.2499765062687 8.2126871082273 6.5934726463176 7.2764689333002 10.602880035096 8.52984830876 6.2918047625515 6.9074990697832 11.42313540204 6.5748491429672 4.6447937622139 6.8148400792249 6.9337599951234 10.517609651225 6.9344602642492 24.140517521319 5.7086183107822 4.6148591298168 18.110963315743 5.8200387621685 18.162720287518 18.054074695671 7.8230689287259 6.6871400675963 6.6961572985602 7.4539480906258 15.781707745243 47.10116602865 26.911209727665 6.3406348639461 4.7785627590655 12.382905768635 6.0099584794442 6.2679325022739 6.5059491442526 5.8527277150286 5.5557416549988 18.387384471468 10.520673294586 11.232563407989 5.1691638898339 6.1417251586741 6.7412451763704 8.2912312807842 7.0411707861486 4.3786301681314 8.6951043080881 11.894331972223 4.9109172259271 4.191685984069 7.2583316209532 16.392166369615 10.855799710626 17.836380626944 4.9313041332665 4.631656221472 4.4312701914827 7.5121545563848 13.510675074662 10.619306258157 6.9099732241041 7.7742301521287 9.0790139980081 7.2146660299373 9.1744478567484 8.5874102715006 5.5837391513355 6.8855638291675 7.4724950988861 10.670700864592 7.347154726729 7.2635908970996 5.8726592400569 6.4176761908959 4.8811496206398 8.2648385112972 3.6370772181786 11.584354805052 6.9742533018823 4.0176062038221 11.291720358292 10.150444857005 7.1087772724388 10.627883707272 7.9659078059219 4.5335841926179 6.5180492661251 7.9089654241834 5.5378293605568 5.9607700479809 13.720726357099 5.4692171408732 12.47691411309 6.9788045122987 12.632385040998 8.1271946359354 5.4295748241984 3.545473750418 3.2525388241188 3.8385144146285 7.0862130975125 4.5300181421459 7.2521415806624 8.0750934852928 6.3413060033793 16.52940058432 6.7333064344347 14.728520775366 8.586446474422 7.9381346604859 15.331897249973 7.7892213494662 6.8855171675427 9.8097895056207 4.5141523993606 6.2050045158497 6.6978145149616 12.874930118394 7.1507711252992 7.6769434537576 6.6297071367422 8.7926444060947 8.0778284229492 4.7993780352677 5.0835261605766 8.4082784797156 10.049960581189 8.158308511291 12.063791313052 3.2032365259515 8.6680487106162 10.320509711744 5.3041271492794 4.8514796191987 6.0648142175124 6.2627495384813 8.0965442500298 9.6859824535911 4.0407960174655 6.272673069729 8.3997204069273 5.1537384104056 6.3300535854547 10.441169752516 15.299528028494 7.2993500394412 8.214444443612 5.2370899769748 12.601404401394 8.0647566187622 6.95461644526 3.2460841525244 4.2587116553192 7.876278159886 8.7951546613235 8.5460406733979 11.228707999396 15.953303634811 13.485220301849 6.0443738343924 7.6146172336308 7.4949074607357 5.7333893713258 7.0215256750294 6.728159917913 15.176602606315 11.510500041001 5.5888864565439 12.554889299163 7.441168377308 10.26702696079 10.64722094846 9.4481686983602 8.1809267028049 6.8459905413725 6.2058325535993 6.3279584327525 7.7573173188393 14.688484469603 6.3199673603277 11.181003585984 27.690116443931 8.8954461882836 4.3373407949474 9.3362264473457 8.0517135854121 8.6990348847442 4.5920376076229 6.3408156120005 11.679348478272 7.7587133271473 7.5021300780591 8.8400487339215 8.3634820527228 6.8652848517357 4.8735328864986 6.0181610386277 7.8710614343776 6.5256542527104 17.314056996201 6.5847199937233 5.5571751269403 7.5758130976525 9.3531623144398 10.344887580441 3.6257489511951 4.3760165866689 6.753122764382 8.3053759269367 12.654762122093 6.0188401178552 5.0920287579865 4.0994672191532 7.2917864326936 6.0827266089947 7.6349637752009 9.6960385602567 7.0079765596843 7.9749509016358 7.9356618385154 14.042499754777 7.177015720372 14.992443627952 3.464553803991 3.7576851503086 8.6715526899799 14.050242032233 12.774130762691 11.211444617006 8.5987789184393 11.624158247165 18.259876032388 4.0296646902254 7.0010483106054 6.3999930424876 10.817105551162 4.0448543082249 4.7009958420892 6.0142752733124 6.1448797064555 7.4533576249321 3.2223695362625 8.0011255748652 5.7284812314765 3.9190764488526 7.3040518938684 7.7718851921937 6.7159784684399 6.4608705418031 5.4910824766142 3.7964127635582 6.5519315199398 11.798111841338 7.6621232706495 5.255725467801 5.0216457180163 4.123750248669 6.3867088563777 7.1057314798991 5.8360852027736 13.01587927022 10.072797446112 4.2053406066264 3.9999980208142 4.2613093187723 7.8940148339854 5.1864668101323 6.7332585746269 25.390855730135 9.0155347514043 10.025581034178 5.9122173359211 13.675593455707 7.743168454379 6.6986535693434 3.4293141697341 9.6416107231022 6.9861570830312 6.7849741838235 4.5272697842277 8.7376402111186 8.8129583514271 8.0754559347077 10.799159164228 9.9217681725397 7.9116375171911 4.5798924986405 4.0628611216672 19.693656150013 4.5833085572357 8.8970609277582 8.768506738979 5.6098427963568 13.854265848052 6.1361325761494 6.9539061202639 5.9182136688168 7.4327481588465 5.100679923742 4.3259543012844 5.9616497711177 3.958324410599 4.8696022047227 5.4559127238363 15.230244917111 9.2162440868691 5.1092914949693 6.3826732037284 4.6020200175419 4.3411952820099 5.6974829830854 6.8804756662257 6.2638714541984 6.6626905880468 10.062752036949 8.976506385666 6.8137947752573 7.4577109345013 8.7588084627312 4.3337310186977 5.966082668814 4.1610592309667 5.8113645111429 3.9599004023996 6.0997635135268 10.782773523456 8.950815004928 4.0077686134872 9.5666726960423 3.4475621616964 6.8606885142025 4.632004976916 5.1256915208939 7.5823783030917 12.90031324318 9.2326973918669 6.7156771385581 5.0812443971998 3.4713031945639 4.749904608966 8.5439123453076 7.534393578598 8.3706058772444 7.2994677166576 9.5773911535643 7.618534469186 5.7997362314342 4.0291152945791 3.5245850855786 5.1418013552561 4.5486501198371 3.8408958113929 4.1327276357672 3.9173480389325 7.1375294530173 5.8442854297809 3.6130912881744 3.4533936126729 13.023172036078 7.2664528081094 4.6171182031269 4.425085707098 4.1596716739721 4.2703071389686 3.7573828923355 3.8254309424865 12.387172828955 8.058343617961 5.8689011162985 5.6774646132279 12.572843235828 7.3722064333474 5.5986725380143 3.6947370416267 8.4381394034323 7.279167180402 11.338681747184 4.0435191989646 4.3561578434529 4.24380916339 3.3588446814485 5.6541778784593 6.0451564509462 4.8967251106549 5.1209913943556 3.6882884786922 4.4711647097447 6.3876777226996 8.0172148950251 4.2092505590397 10.337596387041 8.2237014018185 3.3096987592219 9.1241177567034 9.7968394221077 7.6449265401662 3.7904935880733 7.0516561177359 4.8784322445391 4.5085938090013 4.6371705363027 3.7214860235928 9.4619850668502 9.6652871086825 3.6420555608164 6.635824477451 4.4434455979772 4.1671797660436 4.5453887180914 3.4519633405601 9.667659154854 7.9424211108377 6.8100495636598 4.9601679982921 7.3227711544826 6.4601803110403 6.8094152591797 4.7721627967604 7.0748813511469 9.5227662810802 8.2665918609672 4.5875498152045 3.8255095574646 4.8690359842061 5.194201672693 6.4078474569385 10.861604789084 4.5298011288191 6.8310642897209 3.2251940868371 4.8045053720975 3.3981256152449 3.8455206423997 6.2224765803606 4.3784905528684 2.714597852381 5.1706507418549 6.2372278218357 6.1913346464123 4.943902439968 5.7301514227088 5.1178673193043 4.9187464570951 4.3192532985584 4.5187559621936 6.3901014510295 4.9119337828534 5.9789498005576 9.7752505813524 4.5540433922836 3.8599876780937 4.5206951226188 4.5618414042682 13.068035613123 3.5877183622383 9.0867555989033 6.061428896905 7.7506626483511 9.9699682443111 4.6775248453378 3.112832900574 6.9729854475617 5.2871597732357 5.2817256944974 4.9283355032503 14.113707234117 5.6508243668972 4.1420529552711 4.8905093555421 11.341251816307 7.2564520389447 6.7424402836685 5.7113605792909 6.4520808229208 5.2332953283986 3.5307153734083 3.0800484425026 3.5884778792433 8.0865701593529 4.6390110391873 3.4551372738028 3.9915869977234 4.0549622364439 5.0512827531684 5.5094623860171 6.4847159879125 4.7959524714471 3.6538381344774 3.3097603857846 4.1433232329355 5.3614091876689 8.2995222916988 6.2992305717984 5.4235249801385 4.7376228109927 3.7907870762915 7.4288605663647 4.0385077454935 13.587198861442 6.089273077668 3.4786329613805 9.1990245205223 6.595465847027 4.0987539598905 7.117370650058 5.9961481158996 4.1076290808913 4.3904498093424 3.7370703258768 6.2524747783993 3.5893373205667 3.8274971432352 4.2285692575443 3.4989499378918 4.1967186328724 3.6142477219893 8.4969688650071 3.3617873243869 7.4256653226038 3.8661600928015 4.0582926456523 3.2897966037905 5.1812560442316 3.6777611322645 4.1243512346384 5.8611741203451 3.1619491057474 3.443727262869 4.4161372484931 8.1367154576696 6.4711944517184 5.9136221758493 3.4985209022114 3.6794055490246 3.9755445481773 6.385638882563 5.7312649170899 6.3648687119986 5.2605145883219 7.4892046816047 7.3212047172038 4.2199742219999 7.1777007019614 4.3634181974113 7.0697939676127 4.8348666165283 6.5401701248178 7.3898160042087 5.5787593546342 6.495599038375 6.1860166101966 6.3815694360243 6.9347617698753 7.0911759953467 5.8480095431277 6.5211434447988 3.6811985751015 5.032779084428 7.7613286360166 4.5744042010708 6.6031865982037 5.217528343615 4.4437741086924 4.5808011470329 4.0756495012324 3.7827180377745 3.9562988403545 4.0076584436356 3.5133025468771 4.0478833656325 10.487436111795 5.3217672103411 7.3673418902658 8.2382560913918 4.0585297678617 3.5563667462858 3.719964193861 3.8865941385996 4.243771622846 4.5483493589832 4.2601864336411 4.3420981079435 5.0804022787043 4.7199597927325 4.9956859249404 4.7527873634815 5.1495295685768 5.3074091259908 4.6850034479245 4.4879895081444 6.2587067841065 6.1550893113214 3.9648776884941 3.416542791272 3.6527770232049 3.8578470788367 3.5256265189301 5.8970451981974 3.9400661043291 4.7876812848387 5.1439274643091 23.896106669952 19.689549898968 3.2893606011288 3.7079508454933 4.8209912840712 4.2206264479184 3.035933411855 3.3493253435377 4.163650216416 5.6442286512811 11.894646698533 4.3154556292458 6.1000875309533 3.7752383193712 4.0178457938566 9.76008771874 4.0794194564347 3.3687919417793 6.44867717824 3.4951573461538 3.4773743448025 5.0315702761668 7.5574240361633 3.8952038880552 3.4292091549299 3.4716604489064 4.8684974709785 4.6510821091954 3.6041676816232 3.504742872536 3.6239283009722 3.739605067528 6.9529115578442 3.4355414717557 4.5502403916183 3.578540970816 4.3705053368434 3.3721647325087 3.6363647696858 9.0228350337492 3.27321296079 4.8356169715558 3.5019578215059 3.360297187021 4.0996491573685 3.214079617073 3.5054576164719 3.5211001319623 3.713137848398 3.486889247145 3.364173613104 3.3680938272544 6.5262491894102 4.1172741467762 3.3993154315412 3.6681354516848 4.0854888929839 3.7612411393246 5.5660823611502 6.4239907881901 2.9732234237113 4.9408113780559 4.5261236316492 4.4498946097189 4.9227093129706 4.0086936252253 3.5070409273992 3.8119269663004 4.3415797889834 4.310962992864 5.4472644267238 3.2415508990375 3.6759250917844 3.3813711112192 3.8451874312263 4.6409690476173 4.3672861175402 3.7577168205849 3.3962226516693 3.5133960572751 3.1615625369062 3.755541827132 3.4223000299639 3.6642955247939 3.962899554666 10.629388001221 3.6363753463079 3.8963583309881 3.8091625643252 12.954561362933 7.326598880202 3.4821911056936 3.4625661084252 3.5393214734503 3.8954918007746 4.1362873509802 29.516710260632 3.4302853973294 3.4339741615733 3.7012415696762 3.6157942112544 4.8713448044404 5.3180457355308 4.607557080038 4.4915763472284 3.1315160815355 4.2096004450845 3.6675862669151 3.3640379530375 3.2008248886893 3.4418970463514 3.2305088450766 3.6623581675957 4.9331506730069 3.5676437437019 3.4714673871375 3.1464965516897 3.2253551736577 3.0710544879846 3.3873134801568 3.5326242674069 3.395009265342 3.6681688808169 4.7896215865601 4.4643061794313 3.4099866551233 3.4609234918944 3.4826380178375 3.8773942282378 3.5816556476135 3.3781688059132 3.4746179662007 3.4674053411436 3.3893232201574 3.3383480152267 3.3066600761853 3.9113756587735 3.4856724313676 3.9528898715064 3.6349117959889 3.4445773001663 3.5333399920536 3.5057437953706 3.4838993372594 3.5604923204232 3.2646124415232 3.1480150160202 3.4118987515424 3.3218718008306 3.1824170358557 3.4569767093916 3.415308949298 3.4902006536652 3.7568260154514 3.5373439253944 3.8962162809298 3.5841968152196 3.6446841290612 3.26277617871 3.4473465953446 3.579903978808 3.3645524664637 3.6032939989252 3.4326963172475 3.9716416848541 4.4223612860415 3.5237982105938 3.5802818615532 3.7073591884318 3.5511428653136 3.5095081859539 4.0322163285569 3.8214093082856 3.6925166377057 3.7588315643925 3.9738706582336 3.568043623008 4.2562508232422 4.3571832460601 4.0049986607639 3.7427369213661 3.7410111155496 3.431102323472 3.6815544324954 3.9239540309781 4.0839923214561 3.794373729213 3.6581982584447 3.5994315373173 4.7477613975893 3.7462554932959 3.9175716082037 4.0633399959476 4.9863437132967 3.9961697740837 3.6275179473107 4.0931895648714 3.8220121070257 4.0678168700648 3.5742696354794 3.875080761685 3.8605242564469 4.0481356606481 4.9691369910521 3.8225652112532 5.0161179389823 4.2829415355136 3.9435422354818 3.8041604144828 3.860987974317 3.9199111408692 4.0683494656717 4.2043982238954 3.7792572411422 3.8650069436979 3.8088769363946 3.7428849510404 3.9077407394777 5.008709012543 4.1862901242977 4.1621650920111 3.6926082136133 3.8948823566628 4.1619892430501 3.9364615847115 4.1351035996587 3.9751220239177 3.9702790665892 3.9238502634826 3.9926074893947 4.0125332605153 4.8244190982621 4.0108909472083 3.9733157340504 3.9807801936091 4.2465116949817 4.3826799610878 4.3116288999802 4.5865218426984 4.7073160047704 4.5178117053346 4.3521893315214 4.2864359838375 4.906958856442 4.7648490714863 4.8328370421717 4.6321169635559 4.794956048163 4.9745988023799 4.6801922924916 4.5400217080427 4.0552111000276 3.799170507585 4.1600886224428 4.1772351935146 4.0618425931336 4.1064284388379 4.1930127177298 4.3974784026578 4.2359689731077 4.2683805156868 4.3562158828622 4.2768396459243 4.2346819946802 4.3067034179925 4.1980925518775 4.28936574254 4.3004540824172 
SCALARS 50.00_0.98 double 1
LOOKUP_TABLE default