# vtk DataFile Version 3.0
d-2__ created by libgimli-v1.0.12
ASCII
DATASET UNSTRUCTURED_GRID
POINTS 1303 double
5.625	0	0
5.511811217919	-0.146388704457	0
5.676386535709	-0.13519637448	0
0.25	0	0
0.175228502521	-0.179050409113	0
0.326009290428	-0.144330725415	0
0.375	0	0
0.990207725992	-0.114957291708	0
0.841075314552	-0.137634199948	0
0.926498288371	-0.349340723189	0
-0.001071200562	-0.386156929004	0
-0.003317641763	-0.130454088023	0
-0.192720422374	-0.216308252768	0
1.25	0	0
1.175215748534	-0.200562384647	0
1.341115762259	-0.128605193971	0
1.375	0	0
2.25	0	0
2.168494514827	-0.19848886597	0
2.338304607341	-0.128945294536	0
2.375	0	0
1.911268305082	-0.334701951691	0
1.986191885908	-0.110806668109	0
1.838390258011	-0.128853462534	0
1.75	0	0
1.670105949089	-0.197137117999	0
2.986685504441	-0.10889534818	0
2.838723720416	-0.127406828384	0
2.912854264006	-0.329775839393	0
0.75	0	0
0.664572693147	-0.222613872306	0
3.25	0	0
3.168798596028	-0.193682232199	0
3.337828500197	-0.125181208794	0
2.875	0	0
2.75	0	0
4.25	0	0
4.161099470995	-0.193412132741	0
4.332718836325	-0.127723897736	0
3.83511440706	-0.12403687807	0
3.875	0	0
3.75	0	0
3.901908238995	-0.321557035295	0
3.983050435256	-0.106770030737	0
3.665527023987	-0.190866765849	0
5.25	0	0
5.164693411436	-0.21656556845	0
5.338419985376	-0.147288917438	0
4.834321952324	-0.135810575609	0
4.875	0	0
4.75	0	0
6.25	0	0
6.178399669611	-0.137425451145	0
6.356205370496	-0.193853696818	0
5.817814980918	-0.161175429964	0
5.875	0	0
5.75	0	0
6.611939839541	-0.314381537706	0
6.522886280605	-0.104721203126	0
6.75	0	0
6.669178832877	-0.119404962711	0
6.836073690852	-0.177498311423	0
5.39059629209	-0.37339102075	0
4.660917359886	-0.204007052252	0
4.902096977384	-0.356327271651	0
14.897042426984	-0.319128540459	0
14.98121339776	-0.105010975498	0
14.832720105416	-0.123004000492	0
2.669265824618	-0.196872625129	0
7.656019919505	-0.144451020927	0
7.75	0	0
7.625	0	0
6.625	0	0
8.75	0	0
8.672937461928	-0.164309120831	0
8.834289374889	-0.109279841483	0
8.206809119751	-0.294811800109	0
8.187056112549	-0.110869448227	0
8.024316200302	-0.129362764133	0
7.157390904024	-0.111206354394	0
7.25	0	0
7.125	0	0
8.25	0	0
8.125	0	0
9.75	0	0
9.651145885459	-0.185384966231	0
9.827054067621	-0.122428024454	0
9.381816956327	-0.305807769915	0
9.476753337472	-0.101567493772	0
9.327490061855	-0.116748040282	0
10.75	0	0
10.655660803951	-0.196164841752	0
10.830485405183	-0.127989131147	0
10.386748323888	-0.329675548046	0
10.478464938155	-0.108955040137	0
10.328560245085	-0.126395562242	0
9.25	0	0
9.375	0	0
10.25	0	0
10.15270392044	-0.192469144253	0
8.328856990144	-0.128933011689	0
8.375	0	0
9.153857570119	-0.175508527296	0
11.75	0	0
11.660624577581	-0.201812344528	0
11.833823570609	-0.131890823957	0
11.395399221028	-0.337817920558	0
11.481219500696	-0.111845889235	0
11.331881500183	-0.129806070652	0
12.75	0	0
12.669299873111	-0.199190799603	0
12.839534650452	-0.128328673855	0
12.40897914742	-0.340185307353	0
12.485654611126	-0.112072117633	0
12.336727606385	-0.131188239877	0
11.875	0	0
12.25	0	0
12.164627546098	-0.202605127067	0
13.75	0	0
13.669268468008	-0.186168180444	0
13.837322273199	-0.120178339978	0
13.416957459915	-0.319650485848	0
13.487510959619	-0.105281058988	0
13.34010202956	-0.123833443479	0
14.75	0	0
14.66080663422	-0.189613659871	0
14.399926333663	-0.319306441484	0
14.4823067449	-0.105599641009	0
14.334114343934	-0.12250571155	0
14.875	0	0
15.25	0	0
15.158227025815	-0.185762723401	0
15.330441202311	-0.11956675178	0
13.875	0	0
14.25	0	0
14.163960939829	-0.186365139356	0
12.875	0	0
13.25	0	0
13.171786689458	-0.193064330135	0
10.875	0	0
11.25	0	0
11.158129238503	-0.198418008741	0
7.31587636932	-0.171642077952	0
15.3902841013	-0.308450173235	0
15.478958243586	-0.102394874489	0
-0.125	0	0
0.125	0	0
0	0	0
-1	0	0
-0.706889652808	-0.331752981492	0
-0.5	0	0
1.125	0	0
1	0	0
1.625	0	0
2.125	0	0
2	0	0
1.5	0	0
1.488007132967	-0.109900770852	0
0.5	0	0
0.474245721096	-0.130043839003	0
0.625	0	0
3.125	0	0
3	0	0
3.625	0	0
4.125	0	0
4	0	0
3.5	0	0
3.485533411273	-0.107014956798	0
5.67736414417	-0.368119689468	0
5.125	0	0
5	0	0
4.98353533542	-0.118243061674	0
6.125	0	0
6	0	0
6.009467825362	-0.139471566496	0
6.5	0	0
4.625	0	0
5.5	0	0
4.5	0	0
4.481603306259	-0.111052305129	0
2.5	0	0
2.486482293556	-0.110456056597	0
2.625	0	0
7.828740664136	-0.157959666613	0
7.5	0	0
7.497789303332	-0.098817221798	0
8.625	0	0
8.5	0	0
8.493725508365	-0.094448160765	0
8	0	0
10.625	0	0
9.625	0	0
9.5	0	0
9.125	0	0
10.5	0	0
10	0	0
9.976983002093	-0.106037154081	0
10.125	0	0
9	0	0
8.980258705317	-0.095443922293	0
12.625	0	0
11.625	0	0
11.5	0	0
13.625	0	0
12.5	0	0
12	0	0
11.983083448534	-0.113269018621	0
12.125	0	0
15.125	0	0
13.5	0	0
13.125	0	0
14.625	0	0
14.5	0	0
15	0	0
11.125	0	0
14	0	0
13.984735949845	-0.103165953766	0
14.125	0	0
13	0	0
12.987740386932	-0.109238757727	0
11	0	0
10.980033547654	-0.110118532971	0
7	0	0
7.012790729926	-0.096165366155	0
15.625	0	0
15.653391866104	-0.184257106926	0
15.75	0	0
16.25	0	0
16.151956269841	-0.190746813766	0
16.328162175541	-0.125534698515	0
15.827345422636	-0.12109528269	0
15.881623705918	-0.315197408181	0
15.9768075603	-0.104841845177	0
17.25	0	0
17.155473725888	-0.187015736188	0
17.328334720487	-0.12053442359	0
17.375	0	0
16.97978281674	-0.105790715925	0
16.830585534618	-0.124270763258	0
16.892220832712	-0.321708894118	0
16.75	0	0
16.655725821363	-0.19281499559	0
18.25	0	0
18.144056513649	-0.199584109463	0
18.322695877645	-0.133173012767	0
18.375	0	0
19.25	0	0
19.156955168382	-0.212194778097	0
19.332395147696	-0.137501625504	0
19.375	0	0
18.978107771567	-0.118463258117	0
18.827251646435	-0.137822523984	0
18.884674261801	-0.359498065923	0
18.75	0	0
18.648603260315	-0.210400354993	0
17.973004229039	-0.108213471414	0
17.823362138939	-0.124125311933	0
17.87020700187	-0.324156104502	0
17.75	0	0
17.64837652944	-0.187413016584	0
20.25	0	0
20.167288289523	-0.206556633625	0
20.33799343326	-0.133667464393	0
20.375	0	0
21.25	0	0
21.172020853715	-0.201327641466	0
21.340729826518	-0.130206344264	0
20.875	0	0
20.75	0	0
20.839555732676	-0.132066213667	0
20.987710400762	-0.112937783384	0
20.915843633601	-0.342386775443	0
20.669904108595	-0.203936882105	0
22.25	0	0
22.168893714495	-0.194483818359	0
22.337089427477	-0.126591453251	0
21.875	0	0
21.75	0	0
21.840184239699	-0.127666317168	0
23.25	0	0
23.162361450448	-0.215073727418	0
23.335945395372	-0.148199257458	0
22.875	0	0
22.75	0	0
22.83504078106	-0.133126573368	0
27.412614995451	-0.337768305098	0
27.406417478875	-0.760610856776	0
27.663031754041	-0.476449210851	0
23.674319496044	-0.139602731619	0
23.75	0	0
23.625	0	0
22.902876337082	-0.348446434986	0
22.664415839639	-0.19979598046	0
21.987454968006	-0.109075483352	0
21.916658702332	-0.330379709848	0
21.67241042914	-0.19774510361	0
19.984830323221	-0.115851903278	0
19.835879034474	-0.135573032779	0
19.906686139011	-0.351521653308	0
19.75	0	0
19.663378765328	-0.209646647928	0
24.75	0	0
24.672305039303	-0.121865624882	0
24.84054616259	-0.178479133746	0
24.25	0	0
24.125	0	0
24.179559510218	-0.145425217914	0
25.656694723316	-0.141492417978	0
25.75	0	0
25.625	0	0
25.25	0	0
25.125	0	0
25.159224348757	-0.109007087058	0
22.647257188685	-0.476376729768	0
22.872248033711	-0.780455516934	0
25.317652966423	-0.167196322239	0
31.908525182248	-0.237434634112	0
32.248547795208	-0.367887731521	0
32.025	0	0
26.398062594932	-0.327144710524	0
26.335089901602	-0.124890632532	0
26.169730315141	-0.188549564961	0
26.75	0	0
26.662500836065	-0.197477656933	0
26.835401004001	-0.129534360312	0
26.375	0	0
26.25	0	0
27.486869476066	-0.111474770432	0
27.338367230812	-0.130187170762	0
23.816158307302	-0.168335740772	0
23.875	0	0
24.625	0	0
27.75	0	0
27.67023663024	-0.198727549038	0
27.839431305592	-0.128541986375	0
27.375	0	0
27.25	0	0
28.75	0	0
28.666013303123	-0.192953151514	0
28.835335299513	-0.125393524551	0
28.875	0	0
28.41074998604	-0.32692743598	0
28.485854239984	-0.108071323096	0
28.338261561589	-0.126341817439	0
28.25	0	0
28.169650699531	-0.195402875109	0
29.75	0	0
29.656991685033	-0.201213204108	0
29.830700495316	-0.13323291855	0
29.875	0	0
30.75	0	0
30.665605116896	-0.213760177502	0
30.837855425721	-0.139272404211	0
30.875	0	0
30.987248292653	-0.119871959545	0
30.911614165903	-0.362389547989	0
31.25	0	0
31.174363802618	-0.217041176186	0
31.346460135447	-0.143418487957	0
30.400599561582	-0.360265197586	0
30.483280501431	-0.118794220148	0
30.3336351656	-0.137924489201	0
30.25	0	0
30.159375273254	-0.21004086356	0
29.392934647931	-0.331414044449	0
29.48031118177	-0.110263057575	0
29.331777210358	-0.127344913482	0
29.25	0	0
29.160548153072	-0.194064979946	0
27.167334579456	-0.200440763045	0
24.359650796728	-0.20304719459	0
-0.25	0	0
-0.404335947278	-0.221464959739	0
16.125	0	0
16	0	0
17.125	0	0
17	0	0
16.5	0	0
16.478267427857	-0.108008273171	0
16.625	0	0
18.125	0	0
18	0	0
19.125	0	0
19	0	0
18.5	0	0
18.473681471998	-0.115768873419	0
18.625	0	0
17.5	0	0
17.47687846862	-0.103462148239	0
17.625	0	0
20.125	0	0
20	0	0
21.125	0	0
21	0	0
20.5	0	0
20.486446843971	-0.114298370976	0
20.625	0	0
22.125	0	0
22	0	0
23.125	0	0
23	0	0
22.983281399654	-0.116385827149	0
23.5	0	0
23.509214189908	-0.149359691049	0
22.625	0	0
22.5	0	0
22.48467632496	-0.1093719097	0
21.5	0	0
21.488472844532	-0.111208801785	0
21.625	0	0
19.5	0	0
19.482219828947	-0.117572233456	0
19.625	0	0
24.5	0	0
24.525433875838	-0.108080714825	0
25.824234283709	-0.149177038136	0
25.5	0	0
25.498573523516	-0.096586408813	0
25	0	0
25.014769107289	-0.095147895568	0
21.919931345447	-0.741308582321	0
22.160361550711	-0.463896476278	0
26.625	0	0
26.5	0	0
26.482631880244	-0.108512805864	0
27.625	0	0
27.5	0	0
27	0	0
26.984612185119	-0.111680714924	0
27.125	0	0
26.125	0	0
26	0	0
25.990349817319	-0.10847866492	0
28.125	0	0
28.625	0	0
28.5	0	0
30.625	0	0
29.625	0	0
29.5	0	0
29	0	0
28.983089608831	-0.107750428826	0
29.125	0	0
30.125	0	0
30.5	0	0
31.63125	0	0
31.5	0	0
31.494696987447	-0.123712578064	0
23.671261205816	-0.380102168636	0
31	0	0
31.125	0	0
30	0	0
29.980228243528	-0.115525062547	0
28	0	0
[...]
CELL_DATA 2263
SCALARS 1000.00_1.86 double 1
LOOKUP_TABLE default
7.6892576494969 6.2957926553447 6.32174799077 7.3174736145916 6.3922655318716 7.7571109995276 7.8724930376251 8.3043375716617 8.2769139895308 8.3688427892488 8.3610163519114 7.5181535595873 7.2231991896904 7.1299035989353 7.6583109611325 8.3065071874035 6.495419234293 6.7595819067003 6.4193118165224 7.9915746247315 8.1931807371492 6.9892972427737 7.4586529813592 6.7436249837804 6.5621629766638 7.9278349946273 7.5688913060336 7.9741827298947 8.1130989510004 8.0589556037661 7.7479721918229 8.3746975662327 6.4979234849654 9.3275818168124 9.489985504057 8.8060924531896 9.7297058549212 8.72974193312 8.1446983490254 10.45322532517 9.1695409654342 8.0913126458537 8.8133503739115 9.8756211685638 8.2114792901621 8.5116478330389 8.8242821854842 8.2810345737834 8.4115779164075 8.427830830254 8.9100668433699 9.4536752122149 9.0185262054748 8.0121839498136 8.6729089101436 7.8438032156421 8.5393765017626 9.4729699765545 8.6406362714185 8.4306603197585 8.6222146882724 10.556740797044 8.7858302674996 8.9492547428105 8.0550694674037 6.4639722139321 6.3370486810845 6.056534492332 7.6472474628431 7.5021038827135 8.3260819583242 8.5175681619499 8.2151535461695 8.3882716467368 6.8333355805239 6.2474530260638 7.3307450827695 7.5811071368435 6.3747939509261 7.3975486880484 6.5721812535314 8.1060576931615 7.5816754524062 8.1361223565324 7.5186217031131 7.3530244641907 6.5982399256464 8.0899724471672 7.8476793334545 7.6827377424116 8.284570631026 7.9900235980696 8.2026839136849 7.1358290129583 8.431330849979 8.6861673115267 9.7751706525812 9.8299631862159 9.4658430080096 9.487465417484 10.43311336147 8.4609602401044 8.4425712199659 9.9311285176466 8.7270572637859 8.6966549050334 8.9276186037353 8.7144751401961 8.1891503933871 8.9063421945847 9.46734122814 8.3308912095482 8.9460625213246 9.0793815089407 8.8092755161356 9.3713690734373 8.4679791221715 8.6451723496646 8.6222862278213 8.9117736899444 9.192082455188 8.7583749971799 8.4762538927594 8.2406852539819 9.6149708418808 8.6655101478138 8.0792247388249 7.9176028969385 8.5909369947049 8.5021582391794 8.403998960689 8.4770028875457 8.4596478464348 10.276672065438 11.02769053401 6.8734804733883 6.7723475395101 8.8636488363929 9.0384397402794 7.9648541800044 7.8111126955924 7.925612555627 8.284772903562 10.684008012516 10.731378769837 7.1078205305195 8.5972297937574 8.1148546213954 8.7901419029066 8.6124139220122 8.2681060945704 8.5118812466575 8.7171526036066 6.319478412494 8.0000242715591 8.503520783369 8.7080245925642 8.3157589732329 8.0996538878338 9.3035534102531 8.8340163082173 8.0310450036982 6.968184447167 8.9456289422339 8.0885833485013 7.3211217324388 8.1233428886946 6.2787723672301 7.6705532569954 6.9086831898798 7.7428151845077 6.7928568514392 7.7808742682162 7.9234413707695 7.8546414134103 7.6238588740953 6.6865935874747 8.498427910352 8.5604005925802 8.149111555941 8.0436073044351 8.0430821184282 7.9492930842075 7.0508534318837 7.073139754803 6.9915353208043 6.6101917236083 7.0089223369877 7.0499199744416 8.4701764259926 8.6644958200899 6.6521768262671 6.9708164204954 6.3337465556328 8.4220816055976 8.3176178438111 9.4780086429886 10.053656494024 8.6400575303974 10.92444212233 7.5895558829207 8.7327154252261 8.4546694029126 7.2459653166641 7.0709656662025 8.8081845687168 8.5319231696232 8.5401459776116 10.235885430198 7.1526396081562 7.6693870734409 10.010900361008 10.760300746743 8.6007574389043 8.6063535007679 7.8764417311863 8.7962705836125 8.3184313316255 8.786338199327 8.8907006064621 8.6307205855439 7.6223236473563 9.1796407124754 8.9402527671241 7.6613548772959 8.7411200699472 7.6407781669673 8.8465016682367 8.8637629318734 8.226757374848 7.2672224762947 7.0862145687427 7.4559293831007 7.4984300283776 7.1521916631825 6.7453988535221 8.0602841085078 8.485873195308 7.9910004355509 8.4117359602834 7.0511215575497 8.5484395215561 8.7736469381363 8.2549402342167 7.1277526379199 7.0600186223547 6.6613706958152 6.7188023733168 7.7945068908338 6.8984174497397 8.7381383026933 7.4434636606143 6.6637755187078 7.9576225014016 8.4782162289551 7.2446791827028 7.944694626653 6.6359503267923 8.3790525262266 6.2904237813771 6.9996225818125 6.5695561338343 7.5494272639393 8.1212861584436 8.4499685597598 8.242537238536 8.263406371609 8.5201042882992 6.9900699273909 7.4730741696618 7.4529177288865 6.7783562648836 7.7251881212097 8.5754048100241 6.4382666092693 6.9448478290388 8.0404641579182 8.0340891874621 7.5745767357584 6.7162260919775 6.7258900114015 7.4258010736482 7.7255467264582 7.4089594730728 8.1202506470375 8.2760770043408 8.0649325209197 7.5676091814452 9.1018555406503 9.6647249479008 9.0549882195653 8.8346748202418 9.944990622069 8.5790015127527 8.8602884851764 10.166270629921 10.230436886706 8.667489004922 9.4739231631488 8.7032628407478 8.1651463598335 8.8282245346545 8.5812677653245 8.1707986222797 8.6220783209403 9.0025532759803 8.6350413415858 9.4443759326046 9.4113302027489 8.5167031794032 8.0243690579494 8.7627709899486 8.286408957669 8.9901537588735 8.5967272818007 8.4492261599029 9.1795383734037 9.2129797113383 8.8311094155395 9.7541788122163 9.0924662141441 6.2558805983089 8.3817448581148 8.7717526374189 8.282295469094 9.4122953190041 8.9017243975565 8.6938961025585 10.433827492499 10.588859174163 7.3387789784867 6.9128362593299 8.5445332871275 9.1727290809577 7.4426449935892 8.3324044057822 8.7476488140097 7.8009570938267 10.503203114913 10.419953886984 7.3707068699399 7.4083602360415 9.5426275562175 8.0962051341919 8.5989010078006 8.8301381705349 8.6968519594814 8.4423624818468 7.8958743229189 7.5006502279756 8.8334144233612 8.7866121281741 7.7754890226157 8.5725572892294 8.8087733968851 9.6140975037562 8.9388366613416 8.3881039809155 8.3787307753429 8.6285820376211 7.6527770805474 8.5911673051814 7.2744672210822 6.7444216320759 8.2643015404572 7.5641811799019 7.3030225819774 7.9687548298211 8.4317434136185 8.7099341637955 7.9486012225404 8.3267090337743 8.387501430642 7.6731603702943 7.0470639273135 7.0378155353711 6.7906473697153 6.6132373655548 7.2558507975845 7.0575192491473 8.7459092576129 8.6046154836444 6.6969978791437 6.926505458252 7.8707063064645 7.3968838197695 6.5007858334139 6.4221223389375 6.6236590280873 6.4646606336758 6.6912891993105 7.2769468790802 7.3204658629691 7.9122214097649 8.4200136845861 7.0350881307484 7.391730979054 7.9466598833399 6.7464116164339 6.5334029979995 6.8814043881634 8.5278249096373 6.976721624538 8.0316681070706 7.3584519820478 6.7663510077279 7.4751093303815 7.0859206743849 7.8857943406902 6.620574680659 7.9872023424877 8.5438239006163 8.0899268413617 5.6590689623573 7.133449535778 8.2050003037398 8.3246778884504 8.1578985176699 8.5901364700725 9.2252887659183 9.6611163716112 8.8176577966134 8.0703886588425 8.1248541260408 7.9259115366636 8.9815036450582 8.9460124005876 8.3274487417394 8.2318256401475 8.6196111509188 9.526987689958 9.200116790459 8.7267380400534 7.71351070943 8.9016669709526 8.8796289360104 8.7820717179982 8.4831944603412 8.7609425894572 8.226248033643 8.5574062809225 8.4470826336599 8.6112010007984 8.8044445202042 9.2072254804083 9.3517660669184 8.1239908150082 8.4137239438917 9.4973827214933 9.9826372232307 6.6510196379031 8.5535096344906 7.721805196984 8.6956945140949 7.9310185840823 9.4734543867995 11.232880996947 7.1942445526438 8.2104371619067 9.0009344222134 8.1173603651806 7.6953084275987 7.9896642353077 8.9686051809832 7.5819013525036 6.9145969621469 9.4745477069655 8.7154201867483 8.9484024611162 7.1230509654121 7.2047295858268 8.662413368276 9.6855134148753 10.072720400945 7.9839265524139 8.5004249774848 8.5503395043955 7.3506159499936 8.5905185182276 8.5341086419434 8.3897068571832 8.6506277554386 7.6423655385324 7.3209760244315 8.1093066116001 8.8564854786022 8.4866654480987 8.8016492998494 7.1733893641505 6.8167857717402 7.9266897528665 7.1431194677234 7.6409083511827 7.772375780021 8.1125171787164 8.2101386664627 6.8109653417521 7.8763389144074 8.1242178655985 7.7332241116349 6.970270749488 7.72289130912 8.6561363317556 6.8091821912689 7.0315929342419 6.5614159863381 6.9829086268103 6.399193298173 8.2899912109539 7.6446691834609 8.2103095847568 8.5214870497258 7.5703825986465 6.7944218188243 8.2223135032134 7.0684814673698 6.1378534734596 6.1597276226619 6.7025845432298 6.4000069470775 6.4214080633477 6.4332557815381 7.7553470699704 7.9764189688114 8.150855455592 8.253288342158 8.2605734780316 8.4581836660695 7.1639594096225 7.3778979768953 6.873076628952 6.9093341657628 8.0009030927842 8.5414530490595 6.5231168640638 6.6599222418868 6.3815133559333 8.0567974142129 8.4032658021072 6.8775021339577 6.4114043845134 6.6876041756019 7.0362709026923 7.4529769158997 7.5120853593693 8.2348645648179 7.5736129401627 7.5985559555037 8.4968230257041 8.777185611708 8.484300848959 9.1572436623478 6.8112860849525 9.9161679046062 8.4889496943948 8.8169553087939 9.9492648489259 10.418902576076 8.8489328385117 9.1494669047156 8.1552609798758 8.0851110422129 8.4339390353256 8.455351366684 8.2100381591993 8.5280250039468 8.4291077621515 8.7453541667057 9.3125945880593 9.4642424119103 8.0485832008066 7.877450572577 8.0760849758763 8.2896450818858 8.6802391486139 8.5904635655269 8.749175265145 8.9551693042716 8.7944376401684 8.7805909673876 8.1115692495678 9.2028727839632 8.2408621484966 8.7675309972436 8.5797672511335 8.9712465170832 8.6459256351929 8.5920617805613 10.267634068142 10.975975077109 6.8969611752545 6.8054498244983 8.6298474584398 9.1021421399463 7.6818318848487 8.1142295922264 8.1134069984094 7.9791622260227 10.052171548047 10.568670732445 7.1830609007946 7.2377339049859 8.3441468566618 8.3700000731561 8.5095300615031 8.7276398819119 8.0364538078234 8.4594332193618 6.2877843660564 7.6469803410625 8.0789115994759 8.7271577059241 8.0560287741308 8.4011160455876 8.9300456211596 9.2072592565496 6.8399189318758 8.2409506466956 7.7818821032577 8.7033837029807 6.8912947140354 8.1863158761077 7.3353855366821 6.7715450787584 7.4309306820899 7.6560154806207 7.5076278841999 7.8497606015681 8.3811038402075 8.6106621592867 7.9780730895151 8.2031922542099 7.759910030335 7.8120799873303 6.9759198664653 7.0676840408985 6.6427868405642 6.5847505378536 6.9946057467097 7.0368953414236 8.4507041057648 8.6175407794544 6.645453081184 6.7676581906904 6.8986803698767 7.041759784352 6.2379629508562 8.0518973979361 7.1784653216848 8.0121193046011 7.8537382982741 6.53753810981 7.4339499189775 7.8093640361755 6.7048107770101 6.6990971781241 7.3845767161049 8.0264608012727 7.2150823266422 6.6141495694372 6.7254393598479 6.3361103627349 9.218836371708 8.2392518727914 8.0269596994478 8.4102511659709 7.5739945698219 9.1731279422503 7.1948098651741 9.0155979516713 9.6073191059591 8.724320829052 7.286203648987 7.5303519649534 7.5480898098516 9.1065668186638 8.4722806876016 8.5478065228634 6.8159040486448 9.065886533374 8.1449719238683 9.480419721416 9.1092814112338 8.5406153341689 7.9788659929076 8.2128526775051 7.0124124206117 6.9563283167078 7.5645442561059 8.4225817679003 7.7695655718668 9.1558611361312 7.2596385791149 7.9575163765539 8.344707516523 8.2441171170179 7.4782827312935 7.4272374368384 7.6267888467567 7.8167286930702 8.0565640085367 8.7481117303751 7.4152960919705 8.2236888515304 8.2570846346541 8.8142950908835 8.1460042441744 8.7997934713289 7.0112731470168 8.8043755662789 7.0070142149817 8.7471243431188 8.6193309848972 7.0847882145158 7.5257137322762 8.8995370026508 6.6188592706685 8.7510478717954 7.8689899572027 9.5252411140981 6.7017456889622 6.9258733239228 8.0585581399855 8.3224355468263 7.9114539934754 7.5025600112501 7.0847927723374 8.6245194899787 7.2077899267335 8.4221230385472 8.6169981354502 6.8437825230982 7.9375843372586 5.1494858713778 6.9058282114009 6.5799708720297 5.8527182784328 6.9881472784547 6.4003512948431 7.3534300393136 7.2716049293658 8.2680391008339 6.0690577014959 8.4000178154106 8.2227765629167 6.7457636827273 8.080903380899 8.0447550189766 8.1691765404494 7.7632122765207 8.2078938409315 7.8061713116871 6.4326539985092 8.5249410396141 7.9397911342566 7.3555874295748 6.975535731073 7.4588493244676 7.0078281560505 6.8856713735807 6.5557985563761 6.6334652700097 6.3024166280779 6.2579120601427 6.619918839376 7.0137225192652 7.4615931399668 8.081307803272 7.5445947471809 8.4700577630064 6.6681674262768 6.93841353696 5.9344038729296 6.1398901341084 6.65743441353 6.3708887474363 6.1613321951466 7.0060399416189 6.274168759962 6.3705638453423 6.4602205992655 6.6344190389433 5.8508789412697 6.3974952668807 6.1547866117395 7.8716852071798 5.8727685341363 7.3987087127001 7.430319245122 6.8323560077767 6.865161002289 6.2101704952013 6.7486608672666 6.3409077835142 8.4391288470736 6.2732908231693 6.1545725424777 7.0909371553685 7.1846631110668 8.0598645003558 6.6616201931986 6.8279769675657 9.6254446522672 5.2754375531125 7.8637524856672 6.2008355402679 7.5265639194507 6.8106430106587 6.620509487563 6.933063788461 7.1590800587106 6.5432982160407 7.8714411215968 6.7513347088472 6.153131368618 8.3283027073528 7.8713827124817 8.3815595284218 8.0817266201556 8.8504685828391 7.0657698581941 8.8849868065937 7.2717301428694 7.898806405355 7.2129168019353 8.2007352254199 7.2226901081299 8.0333453991396 7.5195247320304 8.6127980804422 7.3257167070293 8.919220590464 8.304163090265 8.3556907796994 8.005536499634 6.8417977228557 7.6997124171444 8.6430834290481 7.986434541877 7.545555610742 6.8445278097344 4.9220228000694 7.2975174592148 6.1220876125656 7.4310623677609 6.720276475465 7.9702907367535 6.9364025497819 8.1981548525617 9.1282021283314 7.108239577945 7.1311623302991 7.8290214275172 7.0784962366583 7.9031782373233 6.9595454512045 6.9013449550969 8.0955701828794 7.4348628018966 7.5822500611109 6.1915278882701 8.1016475763556 7.4582807581086 9.0429283296653 6.9511157855574 7.4281557211595 7.4868497445464 8.0321555742075 7.0172538851129 6.8319045554823 8.2665015853825 7.50767551975 6.5015773212978 5.5253024640878 7.2470487373577 8.355339645819 7.7349673608911 6.5436236024457 6.8478402045954 6.8524149023169 8.7112512483357 7.8018282748532 5.2564927747121 7.4441064296879 7.1565991938972 5.3924991959158 6.7252807055324 7.552308423047 5.7729120502219 6.4367092858718 7.2854047329325 6.8050662925483 6.3083919646969 6.9081271512933 6.5889106058009 7.5699182273965 6.8340062720443 8.0593987236834 7.4530482604951 6.9234451839109 6.4283670920365 6.6621864242419 7.7872480432889 8.1468237875224 6.8443760419415 6.443009845417 6.2096323182966 7.8066378981912 5.3918656126585 7.3056360700373 7.1778788748934 6.3551934111325 5.8735554240334 6.3282951620534 5.1406986162397 5.2174937117423 8.1049374004158 6.0725670110108 8.3489924680255 6.4642712069289 6.1486223701795 6.286651451481 7.2082245602892 6.6111430650376 7.0356360129086 7.9318254265875 7.0546130802393 6.1000971926652 7.4142223801679 6.5885774709778 5.2719064477023 5.8215415092054 6.0979937849239 7.3878465819891 5.7759938905699 7.5127952150763 7.6004588045239 6.8436433129078 7.6532418567642 8.4455498701997 7.1016978213408 5.3389482167305 6.8449901749652 7.4512330663231 5.1082294131717 7.8994259724687 6.5240964486027 6.5035616219634 8.1900232319374 5.8383031362577 7.7668856311187 5.5059808752115 7.5872466307341 5.9338469238706 7.2990653624556 5.5083087304676 7.1926612073859 5.5529324714167 8.2038644964285 4.9601280118595 7.5156228135764 7.4113860861739 5.0570645686125 3.9110584970758 5.9422494880721 6.4123321911688 6.7582492841114 5.6001353469452 7.3432614808193 5.7966162705038 8.1832850888956 5.656763194749 5.6123749239963 6.7837778639098 5.5120303572541 6.5624263055574 5.6890028346198 6.2630482078499 6.476363907619 5.7631263159016 7.9473400797257 5.9258278876196 7.2543154512896 7.7234232520325 6.5558254404863 5.6384948852654 6.6306944617501 4.8794386220866 7.1131951084526 7.4799513022011 7.0257736554215 7.7590215501809 6.7630423949596 4.5854546957069 7.6743030300359 5.5466290444704 7.2055289852429 5.3869857430917 7.4308646084924 5.2607822811881 6.9464750455049 6.8425369382987 5.4372592127055 6.1939781374798 7.0724351954649 6.659853389405 6.1981936400877 6.5306502719991 5.8570130337197 6.3441180443798 5.74109678858 5.9363812218543 7.3471364485426 5.6035087231441 6.7880145246163 4.4754166954488 7.5205004712059 5.1954824905462 7.0541034284658 7.0634826762505 7.1977201375974 6.535702052384 8.3524658198308 6.1046178512111 7.1415030867339 6.3864272960961 5.8006645563993 4.994049593134 6.6895982102644 5.1562256506814 4.902633914622 5.7558746041104 5.2854796278073 5.9273304754133 5.5620901552382 5.6684771538701 4.1627420511202 5.807605484074 5.6514395914576 5.8554777766441 6.0087585190468 5.8548118401119 4.7979378125111 5.6428738184214 5.7328997881571 5.8537613651266 5.7370309398865 5.2391135980715 5.8745363722205 5.9980814892107 5.9247220786187 6.9848984056733 5.9049651009554 5.6706995866501 5.6487266637718 5.6183041064925 5.887651410301 5.3075886747751 6.5853228346328 7.2926677509176 7.2123623031526 6.8790722977786 5.1683475586009 6.4720432650844 5.9812300011117 7.2849531964586 5.7002089078869 5.1534839619508 6.9501844093295 5.7931484211364 4.9978172195112 5.9512312240697 6.5309751028381 5.3204901965877 5.3294105923348 5.9208582690559 5.3096226960111 4.439898962422 5.3592936646025 4.9915610964174 4.9877960077549 4.4584796551093 4.5380827970136 5.8071899726792 4.7477352188003 4.1671186469569 3.9292368657061 3.6182524204639 4.198453475739 4.3680923474428 6.051371262942 6.4636230775632 5.9678863944568 6.1431122661213 8.21843265858 5.0373681160204 5.655012099313 5.6138276493564 6.9057879885731 7.5622235496718 5.2295263124257 5.5002784718564 6.065342234071 7.2881886959412 5.7779058865481 5.5862825276092 7.0872338978026 5.9689370874976 4.7830452287775 5.1555818061019 5.0963147227706 5.0277271673581 4.3058879189648 5.0111140248445 4.4004579282893 5.5624003784312 5.8966708167781 5.8565600156833 5.0429925886404 5.7428760894502 5.9325180141648 5.6265938493917 5.0276165396186 5.14541180275 5.0112409105008 6.0305775749397 4.9614115158569 3.7457608158332 6.0761043809549 5.4510066582076 4.7569834099173 4.5997586354902 4.9239756381373 4.5060067114683 4.3577832770871 5.3702506978361 6.1255960819701 6.2193190047773 4.5299380159322 3.9133805382426 4.8923820766858 5.6497403484802 5.6985436891504 5.6867222697051 5.9502714045016 5.1130356694774 5.2775728226351 4.656267952004 4.4928829392036 4.1523971257647 4.4705210748484 5.1532183888148 4.0886217486507 3.7714096197694 4.6984303842086 4.0409899799297 4.3220897406366 5.0779310099289 4.3624974574345 4.9275698411356 5.2695185249561 5.7566750438134 5.7267496348485 5.0180905737013 5.4565749247437 5.9116439879421 4.9818784216433 3.6478351200087 5.7481636975432 5.735139806492 5.734653269545 4.4996362238538 5.7288841830586 5.2698370625933 5.2179341324992 5.5133841051152 4.8911802875782 4.293634342108 5.0495136353953 4.4068140846503 6.1352085602433 5.6768987343644 4.4913790842558 5.2975823350953 4.643878570103 5.0287463508664 5.4127029167428 6.0046338110497 4.624165703831 4.9196801338498 3.7778657408335 4.7614256095422 4.3676279451208 5.9894153613938 4.9997396368139 5.2845101266826 4.593483969551 4.1575856202011 5.1342877493007 4.5005701057601 5.1193716401566 4.1206943349125 4.1291790163777 5.6592320534535 4.7780666742248 4.1561196488599 5.5706201062609 4.7234761640268 5.4574402380945 4.3260381418047 4.8224246362485 4.8750488680789 4.3244444177485 5.3942964555693 5.0874381590151 6.0186082113227 5.1864047419912 5.5768985899991 5.4881142584685 5.8551151780407 5.7028169335312 5.76539827004 5.0218182654445 5.8045590986846 5.0433609570243 4.3618865527506 4.039903475911 4.4121912962233 4.6265553776007 4.5862306010795 4.5744113600396 4.1030649653731 5.2821888331255 5.616050766926 3.7195128646712 4.2954798120387 4.9306904710993 4.1569774129478 5.3513734650384 4.5078358934074 4.4821904804196 3.7797445812458 4.7889051776077 3.8041863120446 3.8890426044245 4.4833394329863 4.1673765290797 4.6149704909801 5.2598296120373 4.6582562202288 3.8500463774823 4.0255538903525 4.2645702138009 5.2006064479947 5.