# vtk DataFile Version 3.0
d-2__ created by libgimli-v1.0.12
ASCII
DATASET UNSTRUCTURED_GRID
POINTS 1303 double
5.625	0	0
5.511811217919	-0.146388704457	0
5.676386535709	-0.13519637448	0
0.25	0	0
0.175228502521	-0.179050409113	0
0.326009290428	-0.144330725415	0
0.375	0	0
0.990207725992	-0.114957291708	0
0.841075314552	-0.137634199948	0
0.926498288371	-0.349340723189	0
-0.001071200562	-0.386156929004	0
-0.003317641763	-0.130454088023	0
-0.192720422374	-0.216308252768	0
1.25	0	0
1.175215748534	-0.200562384647	0
1.341115762259	-0.128605193971	0
1.375	0	0
2.25	0	0
2.168494514827	-0.19848886597	0
2.338304607341	-0.128945294536	0
2.375	0	0
1.911268305082	-0.334701951691	0
1.986191885908	-0.110806668109	0
1.838390258011	-0.128853462534	0
1.75	0	0
1.670105949089	-0.197137117999	0
2.986685504441	-0.10889534818	0
2.838723720416	-0.127406828384	0
2.912854264006	-0.329775839393	0
0.75	0	0
0.664572693147	-0.222613872306	0
3.25	0	0
3.168798596028	-0.193682232199	0
3.337828500197	-0.125181208794	0
2.875	0	0
2.75	0	0
4.25	0	0
4.161099470995	-0.193412132741	0
4.332718836325	-0.127723897736	0
3.83511440706	-0.12403687807	0
3.875	0	0
3.75	0	0
3.901908238995	-0.321557035295	0
3.983050435256	-0.106770030737	0
3.665527023987	-0.190866765849	0
5.25	0	0
5.164693411436	-0.21656556845	0
5.338419985376	-0.147288917438	0
4.834321952324	-0.135810575609	0
4.875	0	0
4.75	0	0
6.25	0	0
6.178399669611	-0.137425451145	0
6.356205370496	-0.193853696818	0
5.817814980918	-0.161175429964	0
5.875	0	0
5.75	0	0
6.611939839541	-0.314381537706	0
6.522886280605	-0.104721203126	0
6.75	0	0
6.669178832877	-0.119404962711	0
6.836073690852	-0.177498311423	0
5.39059629209	-0.37339102075	0
4.660917359886	-0.204007052252	0
4.902096977384	-0.356327271651	0
14.897042426984	-0.319128540459	0
14.98121339776	-0.105010975498	0
14.832720105416	-0.123004000492	0
2.669265824618	-0.196872625129	0
7.656019919505	-0.144451020927	0
7.75	0	0
7.625	0	0
6.625	0	0
8.75	0	0
8.672937461928	-0.164309120831	0
8.834289374889	-0.109279841483	0
8.206809119751	-0.294811800109	0
8.187056112549	-0.110869448227	0
8.024316200302	-0.129362764133	0
7.157390904024	-0.111206354394	0
7.25	0	0
7.125	0	0
8.25	0	0
8.125	0	0
9.75	0	0
9.651145885459	-0.185384966231	0
9.827054067621	-0.122428024454	0
9.381816956327	-0.305807769915	0
9.476753337472	-0.101567493772	0
9.327490061855	-0.116748040282	0
10.75	0	0
10.655660803951	-0.196164841752	0
10.830485405183	-0.127989131147	0
10.386748323888	-0.329675548046	0
10.478464938155	-0.108955040137	0
10.328560245085	-0.126395562242	0
9.25	0	0
9.375	0	0
10.25	0	0
10.15270392044	-0.192469144253	0
8.328856990144	-0.128933011689	0
8.375	0	0
9.153857570119	-0.175508527296	0
11.75	0	0
11.660624577581	-0.201812344528	0
11.833823570609	-0.131890823957	0
11.395399221028	-0.337817920558	0
11.481219500696	-0.111845889235	0
11.331881500183	-0.129806070652	0
12.75	0	0
12.669299873111	-0.199190799603	0
12.839534650452	-0.128328673855	0
12.40897914742	-0.340185307353	0
12.485654611126	-0.112072117633	0
12.336727606385	-0.131188239877	0
11.875	0	0
12.25	0	0
12.164627546098	-0.202605127067	0
13.75	0	0
13.669268468008	-0.186168180444	0
13.837322273199	-0.120178339978	0
13.416957459915	-0.319650485848	0
13.487510959619	-0.105281058988	0
13.34010202956	-0.123833443479	0
14.75	0	0
14.66080663422	-0.189613659871	0
14.399926333663	-0.319306441484	0
14.4823067449	-0.105599641009	0
14.334114343934	-0.12250571155	0
14.875	0	0
15.25	0	0
15.158227025815	-0.185762723401	0
15.330441202311	-0.11956675178	0
13.875	0	0
14.25	0	0
14.163960939829	-0.186365139356	0
12.875	0	0
13.25	0	0
13.171786689458	-0.193064330135	0
10.875	0	0
11.25	0	0
11.158129238503	-0.198418008741	0
7.31587636932	-0.171642077952	0
15.3902841013	-0.308450173235	0
15.478958243586	-0.102394874489	0
-0.125	0	0
0.125	0	0
0	0	0
-1	0	0
-0.706889652808	-0.331752981492	0
-0.5	0	0
1.125	0	0
1	0	0
1.625	0	0
2.125	0	0
2	0	0
1.5	0	0
1.488007132967	-0.109900770852	0
0.5	0	0
0.474245721096	-0.130043839003	0
0.625	0	0
3.125	0	0
3	0	0
3.625	0	0
4.125	0	0
4	0	0
3.5	0	0
3.485533411273	-0.107014956798	0
5.67736414417	-0.368119689468	0
5.125	0	0
5	0	0
4.98353533542	-0.118243061674	0
6.125	0	0
6	0	0
6.009467825362	-0.139471566496	0
6.5	0	0
4.625	0	0
5.5	0	0
4.5	0	0
4.481603306259	-0.111052305129	0
2.5	0	0
2.486482293556	-0.110456056597	0
2.625	0	0
7.828740664136	-0.157959666613	0
7.5	0	0
7.497789303332	-0.098817221798	0
8.625	0	0
8.5	0	0
8.493725508365	-0.094448160765	0
8	0	0
10.625	0	0
9.625	0	0
9.5	0	0
9.125	0	0
10.5	0	0
10	0	0
9.976983002093	-0.106037154081	0
10.125	0	0
9	0	0
8.980258705317	-0.095443922293	0
12.625	0	0
11.625	0	0
11.5	0	0
13.625	0	0
12.5	0	0
12	0	0
11.983083448534	-0.113269018621	0
12.125	0	0
15.125	0	0
13.5	0	0
13.125	0	0
14.625	0	0
14.5	0	0
15	0	0
11.125	0	0
14	0	0
13.984735949845	-0.103165953766	0
14.125	0	0
13	0	0
12.987740386932	-0.109238757727	0
11	0	0
10.980033547654	-0.110118532971	0
7	0	0
7.012790729926	-0.096165366155	0
15.625	0	0
15.653391866104	-0.184257106926	0
15.75	0	0
16.25	0	0
16.151956269841	-0.190746813766	0
16.328162175541	-0.125534698515	0
15.827345422636	-0.12109528269	0
15.881623705918	-0.315197408181	0
15.9768075603	-0.104841845177	0
17.25	0	0
17.155473725888	-0.187015736188	0
17.328334720487	-0.12053442359	0
17.375	0	0
16.97978281674	-0.105790715925	0
16.830585534618	-0.124270763258	0
16.892220832712	-0.321708894118	0
16.75	0	0
16.655725821363	-0.19281499559	0
18.25	0	0
18.144056513649	-0.199584109463	0
18.322695877645	-0.133173012767	0
18.375	0	0
19.25	0	0
19.156955168382	-0.212194778097	0
19.332395147696	-0.137501625504	0
19.375	0	0
18.978107771567	-0.118463258117	0
18.827251646435	-0.137822523984	0
18.884674261801	-0.359498065923	0
18.75	0	0
18.648603260315	-0.210400354993	0
17.973004229039	-0.108213471414	0
17.823362138939	-0.124125311933	0
17.87020700187	-0.324156104502	0
17.75	0	0
17.64837652944	-0.187413016584	0
20.25	0	0
20.167288289523	-0.206556633625	0
20.33799343326	-0.133667464393	0
20.375	0	0
21.25	0	0
21.172020853715	-0.201327641466	0
21.340729826518	-0.130206344264	0
20.875	0	0
20.75	0	0
20.839555732676	-0.132066213667	0
20.987710400762	-0.112937783384	0
20.915843633601	-0.342386775443	0
20.669904108595	-0.203936882105	0
22.25	0	0
22.168893714495	-0.194483818359	0
22.337089427477	-0.126591453251	0
21.875	0	0
21.75	0	0
21.840184239699	-0.127666317168	0
23.25	0	0
23.162361450448	-0.215073727418	0
23.335945395372	-0.148199257458	0
22.875	0	0
22.75	0	0
22.83504078106	-0.133126573368	0
27.412614995451	-0.337768305098	0
27.406417478875	-0.760610856776	0
27.663031754041	-0.476449210851	0
23.674319496044	-0.139602731619	0
23.75	0	0
23.625	0	0
22.902876337082	-0.348446434986	0
22.664415839639	-0.19979598046	0
21.987454968006	-0.109075483352	0
21.916658702332	-0.330379709848	0
21.67241042914	-0.19774510361	0
19.984830323221	-0.115851903278	0
19.835879034474	-0.135573032779	0
19.906686139011	-0.351521653308	0
19.75	0	0
19.663378765328	-0.209646647928	0
24.75	0	0
24.672305039303	-0.121865624882	0
24.84054616259	-0.178479133746	0
24.25	0	0
24.125	0	0
24.179559510218	-0.145425217914	0
25.656694723316	-0.141492417978	0
25.75	0	0
25.625	0	0
25.25	0	0
25.125	0	0
25.159224348757	-0.109007087058	0
22.647257188685	-0.476376729768	0
22.872248033711	-0.780455516934	0
25.317652966423	-0.167196322239	0
31.908525182248	-0.237434634112	0
32.248547795208	-0.367887731521	0
32.025	0	0
26.398062594932	-0.327144710524	0
26.335089901602	-0.124890632532	0
26.169730315141	-0.188549564961	0
26.75	0	0
26.662500836065	-0.197477656933	0
26.835401004001	-0.129534360312	0
26.375	0	0
26.25	0	0
27.486869476066	-0.111474770432	0
27.338367230812	-0.130187170762	0
23.816158307302	-0.168335740772	0
23.875	0	0
24.625	0	0
27.75	0	0
27.67023663024	-0.198727549038	0
27.839431305592	-0.128541986375	0
27.375	0	0
27.25	0	0
28.75	0	0
28.666013303123	-0.192953151514	0
28.835335299513	-0.125393524551	0
28.875	0	0
28.41074998604	-0.32692743598	0
28.485854239984	-0.108071323096	0
28.338261561589	-0.126341817439	0
28.25	0	0
28.169650699531	-0.195402875109	0
29.75	0	0
29.656991685033	-0.201213204108	0
29.830700495316	-0.13323291855	0
29.875	0	0
30.75	0	0
30.665605116896	-0.213760177502	0
30.837855425721	-0.139272404211	0
30.875	0	0
30.987248292653	-0.119871959545	0
30.911614165903	-0.362389547989	0
31.25	0	0
31.174363802618	-0.217041176186	0
31.346460135447	-0.143418487957	0
30.400599561582	-0.360265197586	0
30.483280501431	-0.118794220148	0
30.3336351656	-0.137924489201	0
30.25	0	0
30.159375273254	-0.21004086356	0
29.392934647931	-0.331414044449	0
29.48031118177	-0.110263057575	0
29.331777210358	-0.127344913482	0
29.25	0	0
29.160548153072	-0.194064979946	0
27.167334579456	-0.200440763045	0
24.359650796728	-0.20304719459	0
-0.25	0	0
-0.404335947278	-0.221464959739	0
16.125	0	0
16	0	0
17.125	0	0
17	0	0
16.5	0	0
16.478267427857	-0.108008273171	0
16.625	0	0
18.125	0	0
18	0	0
19.125	0	0
19	0	0
18.5	0	0
18.473681471998	-0.115768873419	0
18.625	0	0
17.5	0	0
17.47687846862	-0.103462148239	0
17.625	0	0
20.125	0	0
20	0	0
21.125	0	0
21	0	0
20.5	0	0
20.486446843971	-0.114298370976	0
20.625	0	0
22.125	0	0
22	0	0
23.125	0	0
23	0	0
22.983281399654	-0.116385827149	0
23.5	0	0
23.509214189908	-0.149359691049	0
22.625	0	0
22.5	0	0
22.48467632496	-0.1093719097	0
21.5	0	0
21.488472844532	-0.111208801785	0
21.625	0	0
19.5	0	0
19.482219828947	-0.117572233456	0
19.625	0	0
24.5	0	0
24.525433875838	-0.108080714825	0
25.824234283709	-0.149177038136	0
25.5	0	0
25.498573523516	-0.096586408813	0
25	0	0
25.014769107289	-0.095147895568	0
21.919931345447	-0.741308582321	0
22.160361550711	-0.463896476278	0
26.625	0	0
26.5	0	0
26.482631880244	-0.108512805864	0
27.625	0	0
27.5	0	0
27	0	0
26.984612185119	-0.111680714924	0
27.125	0	0
26.125	0	0
26	0	0
25.990349817319	-0.10847866492	0
28.125	0	0
28.625	0	0
28.5	0	0
30.625	0	0
29.625	0	0
29.5	0	0
29	0	0
28.983089608831	-0.107750428826	0
29.125	0	0
30.125	0	0
30.5	0	0
31.63125	0	0
31.5	0	0
31.494696987447	-0.123712578064	0
23.671261205816	-0.380102168636	0
31	0	0
31.125	0	0
30	0	0
29.980228243528	-0.115525062547	0
28	0	0
[...]
CELL_DATA 2263
SCALARS 1000.00_1.07 double 1
LOOKUP_TABLE default
9.4993692692459 7.8563490693832 7.9391555305047 8.8332939709134 7.7015325832643 9.2643917540216 9.3302448210081 9.7180717053977 9.7165419125887 9.8486244443062 10.025000779293 9.0750423144299 8.6509845602882 8.5863721033145 9.3118933880667 9.0973340668598 8.5970629702522 8.6268335195697 8.5557888279038 9.2655024942524 9.2982089226664 9.094391569228 9.4877890615579 8.9727166844869 8.8710386695219 9.2482659792042 9.4885283506779 9.0598838443374 9.2292058947593 10.84014439487 9.3451153947334 10.12361210365 8.8266457521465 10.084905150485 9.9548166870816 9.7039975704586 9.9424213412751 10.110060787048 9.6180778980264 11.024898968383 10.786639044778 9.4782600561406 10.850454286689 9.9812252158508 9.5072545409614 10.328897000055 10.500188063267 10.164321334961 9.7982376049736 10.289609158707 9.8083123330512 10.589463498896 10.613384492492 11.172348272853 11.019018638445 11.163695522246 10.185470138289 10.595636933107 11.105440270889 10.264346602218 10.487757461955 11.093599717878 10.550472599352 9.755232386202 10.22728184183 7.7592232650673 7.7254402482297 6.9238647946236 9.2253445097887 9.1023972695248 10.043892643101 9.9939153847944 9.8442699150434 9.8072181624622 8.4275912205019 7.740870526641 8.6800992904033 8.9974212420802 8.5624730518574 8.9226654169843 8.6173809599731 9.0655709118898 9.3578779210794 9.320234479321 9.4702268942017 9.3300612886568 8.9295703643067 9.2229670376906 9.5425416716678 9.3646376154996 9.2541410857614 9.2482881903658 9.6731050413873 8.5856755154172 10.112670398949 10.122447447397 9.9479572072886 10.21342618602 10.081463080436 10.148348807646 11.034707066138 9.9273707724337 9.5874802624676 11.066527678517 10.590345476553 10.80855076027 9.8723599053798 10.09943057937 10.120980841827 10.661479730478 10.625860566678 10.034870465108 10.136721975135 9.8886177743698 10.284655077977 10.762787749984 10.424645156572 11.325591825237 10.694370509124 10.631191520102 11.050718699781 11.150450665317 10.411072061454 11.283048494982 10.929622081176 10.466830027747 9.5348261805524 9.4713053095755 10.605147034631 10.881392913299 10.580280487672 9.8708697605571 9.8388162913135 10.751472757699 11.102909775187 9.2646607242823 9.2451039137504 10.076321022413 10.180564247593 9.5842542448809 9.5389346694139 9.6912230795303 9.8614879400688 10.832907628639 10.888032264977 9.4037032452629 10.196983563136 9.9780040810039 10.209951964163 9.7852245018098 9.8947707618351 9.6267057063318 9.1996814049022 7.8987673650459 9.0798019596564 9.1277263142552 9.1827675981244 9.7544931565372 9.8681774703932 10.337512218111 10.244534099445 9.1351388249167 8.5887304369447 9.542656259514 9.3935012863643 8.1360208181003 9.363834372952 6.2139726130077 8.8963789120238 8.63003448324 9.1197199444667 8.7816084468718 9.0480435481998 9.1316809479836 9.1299452874575 9.1025377719252 8.7810493034701 9.4950220178642 9.5222505333557 9.4113316350162 9.4223799917303 9.1515029334393 9.1501184630392 7.7503496864933 7.6276683421946 7.5748202887142 7.1201589052406 8.2859054958966 8.3567725237094 9.298012004147 9.4374256165552 8.7387834657095 8.5864455975722 7.4487808906054 10.856427780891 10.890078465157 10.491939879931 11.147244559473 10.604297850157 11.164284194163 9.631406542831 10.03798018952 9.9280294951713 9.488392300532 9.3541942835046 10.03860565839 9.971955413393 9.9581928503243 10.804447607216 9.4705508593177 9.8648161679063 10.66385047784 10.887218979725 9.8687439705563 9.9799984700205 9.0462345546859 9.6448077941177 9.339051779054 9.2300278631319 9.5328905072109 9.7068734208197 9.8612304927018 10.328325837758 10.315560403441 9.5328695927072 10.233927781425 9.0855528392034 9.4312127665465 9.6244939506957 9.4413109470085 8.4349087873198 8.6818944694031 8.9023730854082 9.0912484900808 9.0336727610991 8.7793293596411 9.2326378079946 9.3712835493293 9.4042617831796 9.588660096621 7.9208652606064 9.3604933348563 9.5855012958233 9.2209949901588 8.4523680772458 8.2278053221352 8.7458748725694 6.7334473589194 8.9876656354643 7.5534962428514 9.498143588062 8.7992378189094 7.3079626315813 9.3597893970358 9.5228100911854 8.8394405463768 9.9231668166184 6.8378091739884 10.49301073633 7.7268814978459 9.1423021439951 8.2483441307198 9.1669366192469 9.6021762350177 9.8674091855833 9.7141666823519 9.9332479645653 10.076150502492 8.5293928540742 8.946952569194 8.817940128569 8.6023194076555 8.9769839479262 9.2865956159787 8.5812831322611 8.7861657808753 9.2546624487706 9.5285723418492 8.6786545930028 9.0603186859826 7.9185734444166 9.3291444389223 9.1420716044091 9.4603556227089 9.2038233277014 9.3880730425252 9.5512153440256 9.1742281962908 10.203005290197 10.193030575054 9.9996474537031 9.9821010687494 10.146315142073 10.030691505927 10.387032144281 11.005266010433 11.111459961266 10.671728251707 11.099841983628 9.7336958921082 9.6726595885866 10.565871908525 10.226407065899 10.054617174995 10.432283547047 9.9955252739973 9.9428434737648 10.703964881279 10.81865376046 11.279948434102 10.970883026301 10.458317579334 10.317503582674 11.10745404737 11.241813561457 10.393888336037 10.765148716642 10.757556849393 10.631869036564 10.062196417521 10.075437671364 7.2861743480634 10.549435004278 10.790554227924 10.845978184963 11.089905229788 10.193274533715 9.951390950242 11.11383142187 10.917685676183 9.485284951481 9.3714495634691 9.9572735050355 10.352161190093 9.5082465459591 9.8113583556458 10.014000069511 9.7659788186971 10.822628926592 10.851459522979 9.6557279787561 9.6400917534874 10.455280062445 10.097282805182 9.8970873520102 9.731779216523 9.6689429646876 9.5694248438798 8.9797316939843 9.0221140782005 9.3570603325832 9.4395250278674 9.9009304602838 9.9663984479429 10.248522471906 10.613759905444 9.5851095856707 9.3753552888052 9.4213740320706 9.364639436887 9.0203486350396 9.5165095625458 8.7656053707744 8.7448466174916 9.2766425751178 9.039514058997 9.0462416162593 9.3124527485969 9.5357001348543 9.5853977178259 9.356060967547 9.6011720965745 9.2663818495387 9.0305877488185 8.1048631237237 7.5184176800445 7.4510944021145 6.7984678653199 8.6192186281613 8.2660312818376 9.5237885726659 9.4303700392121 8.7533953892803 8.9420142804305 8.770791920691 8.9019970558578 6.4069478157945 7.6292246003125 6.522515236519 7.8360676318516 6.6283774936767 8.7555663194196 8.7137509269885 9.1450589961513 10.076619848989 8.5623636231072 8.9579326940083 9.4113147039906 8.3533693980388 8.1558939728608 8.3889412223258 9.179876712596 8.3720669804751 9.3417753336947 8.8445332029881 8.5299004802077 9.3017507458948 9.1287308383906 9.1347381682716 8.1640449687894 9.1141069680966 10.168289822274 9.184104976029 6.5943699643193 8.7028597154631 9.0611644974419 9.7044275999628 9.5478738002354 9.9735188214937 10.06503239131 10.089927790646 10.16621395747 9.4007677442755 9.5329913171085 9.4790564669245 10.14487790867 10.962125590572 9.828833264513 9.7599924517815 10.163142461762 9.9116390612627 9.9746239000574 10.543858012577 9.4513197454208 9.8108373835555 10.232591444869 10.413109823181 10.113583838061 10.578368744408 10.386827367953 11.13708658449 10.16260329653 10.979363244059 10.658089841634 10.619544783811 10.697712978634 9.8197143432821 10.218264349262 10.730836645079 10.890337540704 8.9220773973343 9.8184706828126 10.034061718873 10.948337222059 10.300545497136 10.780661152663 11.141605577027 9.0775942309677 10.574610950124 10.820247726854 9.8372354955266 9.161130192912 9.6002802322465 9.7373369771758 9.5094987764768 9.2743855652397 10.375979782744 9.9015442741166 10.319026641792 9.3964559735188 9.202841879022 9.7999471048816 10.39676676855 10.574452939224 9.0865121817545 9.6574492543171 9.1981680167712 8.8530212148425 9.2662045702914 9.3609369416207 9.6677586875931 9.5672898143498 9.7317705386948 9.5252415285489 9.6352008161872 10.071167223474 9.3205543142792 9.3963323368469 8.6895812736391 8.6430999050068 8.6536070620586 8.200784385271 8.7793339651706 9.1675646714378 9.159556467543 9.3439715128238 8.4665077934314 8.9724635410238 9.4916406807198 8.7689141676651 8.8190497627739 9.1168579813578 9.4456881498644 7.8551194638714 8.2994112863794 6.9985012012936 8.1675927018271 6.3064826097667 9.175560404396 8.9533897698211 9.3765044757853 9.4381156627239 8.9085621055335 8.5341065364845 9.2789744679668 8.6817652693462 7.111843162003 7.1159766576806 7.1578216825339 6.697231548562 7.982709582079 8.0905591917666 9.2251569149516 9.4228095487742 9.5008454810813 9.6968114678144 9.7581153782602 10.053388841986 8.6657163694719 8.8097182275258 8.4949234383839 8.5709293920346 8.9247243341141 9.2116507663576 8.4947655083077 8.6611039135315 7.8381142515593 9.4091493532985 9.2573711602362 9.101257439753 7.4492331107427 8.96354556407 9.0205070617237 9.4717279923045 8.563501853261 9.3290911605461 9.0979561990962 9.2435494587166 9.6389662292918 10.18487575514 9.93030746162 10.041432779174 9.0975063906814 10.057020786618 9.9922949010202 10.231565967423 10.778920274447 11.097210951902 10.598330796938 10.997633831156 9.5318327661998 9.5471189867101 10.103637209525 10.248087532023 10.033890216019 10.329882005535 9.6946052872124 9.8492588971336 10.562013382408 10.673685250127 10.845420788823 11.070855482344 10.144370309838 10.212342500543 10.897163012184 11.151072387472 10.435290067219 10.667241667145 10.425808475036 10.574373205896 9.2732429201989 9.8643321610769 10.449342436117 10.69306738037 10.671501389304 10.981482607047 9.8557508892401 9.885782203082 10.742908045541 11.046941585299 9.2045211720001 9.2877996163871 9.8775514755474 10.242758757967 9.4153297275805 9.6728270128834 9.6946153384842 9.8004239946542 10.473602759267 10.853550345089 9.3980894980577 9.488954307841 9.9599027456735 10.157421103746 9.5226953607349 9.7628440133704 8.770567354869 9.6014006100929 7.7223340784618 9.0465825542622 8.8363949946904 9.2870023525188 9.6480195417623 9.9015621962976 10.118804823729 10.424116461022 7.6523175411241 9.2019262686487 9.012510005287 9.3461225294244 8.4201594611267 9.3757568481282 8.7262759638891 8.6779753392455 8.3506953028488 9.0701445417662 8.9691850312813 9.2135612352321 9.3553579430948 9.5376743109548 9.2783925249211 9.5285473553823 8.9689727772776 9.100945664031 7.6753585164672 7.5715025448778 6.9682667387702 6.8976519176369 8.323004015875 8.2931052889542 9.2613401353552 9.4258006827727 8.6480450773158 8.8362053219032 8.2792579601645 8.6270912285801 7.3094663154681 9.5507101336128 8.4842870426807 9.4046070886216 9.0835351256537 8.4862431634797 8.6017036594528 9.1646213868121 8.1141059080617 8.2257284250158 8.7539017775499 9.0111164622015 8.4337543240215 8.441088691579 8.2905721337439 8.1836752983516 9.8117923843958 9.5255063970827 9.0358355625773 9.5933173222049 8.717374007894 9.96250942464 8.5298487942082 9.8589182446723 9.9493931206827 9.895394858995 8.4236899076871 8.8498345736651 8.9820545722864 9.9725782452204 10.113890562685 10.268349312925 8.7403413926491 9.7576731695104 9.4022680826832 10.707235325231 10.17484421701 9.9366280902454 9.5331993121448 9.8195004895587 8.6182020383511 7.9982412237167 8.9947907215111 10.230326288898 9.5249927171308 10.799214482162 8.8036917778747 9.4248283035375 9.695903345798 10.542942169917 9.6028682254343 9.9583182504869 9.9344299747809 10.087029551317 9.7115236060526 10.367979385436 9.0330053722827 9.8781457232507 9.4119592507813 10.111394151657 9.1537189588297 9.4569745881058 9.4278115124021 9.8318243547567 9.414087992982 9.8933444593245 9.6963307799249 9.2974887326039 9.4039988635708 10.169112110665 8.4167888680219 10.029751450819 9.2373559157998 10.3331747604 8.3545025120575 8.9111218821195 9.1382132504073 9.4995467945273 8.8883767489646 9.6049485328847 9.1154291331881 9.3557110978815 8.7110482244663 9.6000743839791 9.2344887666038 7.8252084322385 9.0537243222242 6.1377317838366 7.9120268825767 7.7858398514179 7.3067335817111 8.6029803977584 7.956018193546 9.1349872687199 8.5722112802705 9.4732204789465 7.2505231896523 9.0525794956989 9.2470288776237 8.6218644851108 8.9945264776157 8.725619844168 9.2828878047147 9.1320652570939 9.0373171371309 8.5025300554441 8.2749741941654 9.3771744739633 8.9796977263847 8.7342499128046 8.5226818443485 8.7622593818534 8.2039873213216 7.4513301956066 7.3083395847394 6.6834950131112 6.7402737579618 6.2333970121806 7.8331562019268 8.3811589056951 8.4762609227646 8.9645824583248 8.5450800049502 9.1734494347115 7.8193654978312 8.2407248059302 6.7720329880128 7.2664542985441 8.8930064439293 7.7567037505018 7.3723860294826 8.1178986382725 7.4408657685488 7.8018701274713 6.4971514813557 6.9936088185504 6.320916115221 6.3679569591749 6.1058160626131 9.2113856424028 7.3641028112536 8.8389071689842 8.562161906109 8.3448329197604 8.2603523693859 7.4474875277129 8.0070332678248 8.1843948511982 9.8361643478405 7.8228120371003 7.7853453613651 8.6318726293089 8.4295432399747 9.3734564639221 8.4939753943675 8.110043185404 9.9902829143353 6.0454615934827 9.0906338194517 7.7876236230471 8.5850082015237 8.1182536660934 7.9960140024025 7.966887399459 8.3339896787622 8.8661547212844 9.2425820795726 8.7520059571534 7.4122466708428 9.9178986064952 9.2202509472736 9.495411842093 9.3335407140001 9.8210552091902 8.976016791813 9.5087567393391 9.0874014578758 9.3592431221862 9.0069036928857 9.7276147761729 8.8410629658709 10.348420850508 9.9881467442989 10.383007394769 9.5309149534813 10.233715933104 9.7346249100262 9.9665463519429 9.4582774410607 8.3551164251937 9.1212937039134 10.037157482029 9.2936733458862 8.693592070735 8.2582044372955 5.7218331097989 8.2550502060399 7.3722749763071 9.1727497314877 8.9233698370488 10.10775488171 9.4303610129082 9.3754535999731 10.159720804483 8.6767900617169 9.429229527682 9.4161700600626 8.9363276651957 8.8606534124415 8.972384356329 8.4285968550792 9.4162113052198 8.8100822911322 8.6741866068439 7.7692925562721 9.505582608826 8.7854512228071 9.7563866941029 8.626531992319 8.8644304140726 8.2660165347592 9.0446708892127 8.5081293897019 8.491894826583 9.0939534794442 9.1321635126634 7.8651532745088 6.5488966960943 8.1031931056168 9.5139517563784 8.7911861368407 7.8706182729309 8.0972534199687 8.1596201573894 9.4197273489214 8.8549061438237 6.3974470145217 8.2842061532545 8.3416755559342 6.52163584559 8.2283311013794 8.8206389815282 6.5526153862348 8.2540642468452 8.410253732403 7.6919765526818 6.4958307542794 8.2565378162837 7.6858400977885 8.7035923050169 8.0981719658614 8.9325982363975 8.4254514429109 7.9836332906289 7.6239485938683 8.6070861620145 9.1172659174884 9.4177449327462 8.1671944488329 7.7592777680347 6.9672435165852 8.7673673325027 6.162136369174 8.5667603406298 9.1087277110086 7.6818373785509 6.8804159137043 7.6038926120508 5.7971137532719 6.2216000559562 8.9034405136107 7.3449368360796 9.1491051679097 7.4589134162879 7.0600947454744 7.2972253741683 9.1942920140089 8.2808929302998 8.7230485110309 9.2429544514311 8.4501212387098 7.4569836306468 9.262253163083 7.729722350334 6.1978557251696 6.7683008208316 7.0106044870045 8.2899956039681 6.8951429093945 9.0146630967274 9.1011703152578 8.8552597936354 8.9725528346456 9.3262010026837 8.2293781018482 6.4083758199233 7.9635756015668 8.8976053557625 6.1307450612276 9.7002830505579 8.8786013681689 7.6463978372399 9.5734340027067 7.0173864331489 9.0666685555041 6.5633141414396 9.1670244490843 7.1420480574023 8.7134618479636 6.4406237120211 8.4800698372755 6.5418351806659 9.4098715326864 5.688750023666 8.6943045931878 8.5531423373743 6.0965577697702 4.142701591103 7.0548400102554 8.0251441834338 7.6438957790295 7.0978132162351 8.7155682925085 7.5853920214974 9.3064574598708 7.2918113793114 6.7699791429503 8.7717756682363 7.2521073651399 8.3718696688031 6.6063711918841 7.3265673630246 8.0171872517644 6.8455139876925 9.0623905037496 7.166891289674 8.4402331534112 8.8429075706537 7.4176788282721 6.6201752417796 7.7601609040581 5.8384672551625 8.4542309988171 8.4336303071516 7.7149117859432 8.6398967502493 8.508924001947 5.2846856077757 8.3528007633405 6.5013815842682 8.1766745727722 6.4464424316104 8.6551638304773 6.4096127747183 8.0420922961037 8.2184073514871 6.4651632139021 7.7436695395336 8.2496634725042 8.0671097890866 7.8238726615636 7.1118650572384 5.8611510386493 7.2403397503197 6.7426852557668 6.1560894620122 8.3748329483823 6.688684347131 7.8940416771452 5.226561900432 8.4885775420848 6.2577277538239 8.0380030444128 8.6912536886849 8.7624528792061 7.9066084899962 9.280640568217 7.5024643047962 8.1146204248174 7.6536706537116 6.8841434350915 5.758292830036 7.5261904706836 6.0864163625224 5.5248628403199 6.6857341638957 5.8597049653507 6.7081501407675 5.6865268304632 6.2781321350422 4.6647519241192 6.6128654698078 6.3337916790949 6.5806695667425 5.9947925030265 6.0074448558699 5.5236359867833 6.5266826074352 6.3758532777977 6.7468957687898 6.4288171824658 5.7528513488934 6.6505288598491 6.043840585354 5.9565307670536 8.0288992458285 6.7631960217927 6.2859826730223 6.46456400865 6.2159737893958 7.1582945678923 6.2276931017952 8.2268792433229 8.8234786517227 8.4318368477233 7.7586970611571 5.9928327146398 7.5260606898761 7.2755072913173 8.5979674853398 6.7440791173144 6.0461355461572 8.329004547222 6.7958508527682 5.80855737074 6.8092921541885 7.5172291704257 6.0969955377091 6.1935314244905 6.8052831750405 6.3415315192357 5.099678498651 6.1868624575015 5.714176146624 5.8588842794428 5.1066959983995 5.146125433009 6.8140418855895 5.4744511624432 4.6929041346762 4.4414662319149 3.8499798844067 4.6903282947291 4.9936586864261 7.5057784352935 7.6810963743251 7.0077043053369 7.1311455500058 9.3026624993606 6.0372228000888 6.6875597853654 6.3726483033486 7.9051916762139 8.4495104699788 5.9525652934376 6.1802431157797 6.871230496563 8.0145052297645 6.4657155604232 6.3233887090024 7.8602572995028 6.6497467038896 5.4068937223145 5.8862075208975 6.2124315990435 5.6626825150533 4.8737311591986 5.7785148150406 5.2482047822583 6.4167468522668 6.9247949877123 6.8806974751542 5.5134262496964 6.5540270971469 5.926915390894 5.6897648635665 5.4348430419029 5.5364174606811 5.7405112622944 7.1513787649245 5.7766016613855 4.1699493717754 7.0819800357366 6.2156634945599 5.3289044575326 5.4534767146066 6.2389854548263 5.197746302163 5.0929998045403 6.669680738805 7.2786293066322 7.328559551644 5.1228539011701 4.1745316355339 5.68132706247 6.7140718215179 6.6451476289861 6.7091992231832 6.9723488313104 5.9777879042488 6.1817515139209 5.3091795354988 5.1993186096483 4.6899539674003 5.1830769898127 6.0823910038046 4.6269860756214 4.1775482340059 5.3976460809105 4.5469421150405 4.9346162057714 5.4618202196439 5.1732897371623 5.9810509260328 5.7092011857863 6.1167660736318 6.7234401756579 5.8605718375741 6.2314878008092 6.8151951222532 5.4963361216575 3.4013824377337 5.8082130742034 5.7804925780443 6.3709051092222 5.1255952387875 6.6655700556036 6.3275608121222 6.3747529923927 6.3455085537575 5.5928783631922 4.9484822969967 5.9792102726876 5.043408586709 7.2071358363864 7.5640665058181 5.4246239181988 6.1994757534284 4.9691219858937 6.4067566868268 7.061832127052 7.0724966757596 5.2473472722168 5.7102403011007 3.9043427896855 5.4391304415859 4.8803309342345 7.0663552951008 5.8048588314749 6.1584048752962 5.2860663305371 4.7121305618666 5.8370431806513 5.2389400509583 6.1032092022402 4.6126215350337 4.6898595079987 6.517179923046 5.4481359682062 4.9070435042517 6.5538493090933 5.6387981092503 6.4785997806321 4.8964353498273 5.7391153038689 5.5979356577223 4.9568268788101 5.7649714857464 5.2241889177425 7.0157346325211 6.1035976079537 5.7370737310869 5.5781858041725 5.8639849529661 6.353171409351 6.4335841040799 5.8250822254972 6.7230759046138 6.0860940617225 5.0973319204762 4.595314795171 5.1130183309682 5.1999850335281 5.3172143915186 5.4928559603394 4.6034858791117 6.180055474886 6.6661771041761 3.4142941775796 4.9410615054457 6.1481188831305 4.7791256545216 6.2185426194275 5.1351669547529 5.0743281895547 4.0392135769717 5.4564656154682 4.0629609888564 4.2422199817925 5.2164484377842 4.7060388401777 5.2264512510133 6.1292003972171 5.3305799140134 4.2596993970868 4.4817354606124 5.0446053460728 5.3682857088113 