# vtk DataFile Version 3.0
d-2__ created by libgimli-v1.0.12
ASCII
DATASET UNSTRUCTURED_GRID
POINTS 1303 double
5.625	0	0
5.511811217919	-0.146388704457	0
5.676386535709	-0.13519637448	0
0.25	0	0
0.175228502521	-0.179050409113	0
0.326009290428	-0.144330725415	0
0.375	0	0
0.990207725992	-0.114957291708	0
0.841075314552	-0.137634199948	0
0.926498288371	-0.349340723189	0
-0.001071200562	-0.386156929004	0
-0.003317641763	-0.130454088023	0
-0.192720422374	-0.216308252768	0
1.25	0	0
1.175215748534	-0.200562384647	0
1.341115762259	-0.128605193971	0
1.375	0	0
2.25	0	0
2.168494514827	-0.19848886597	0
2.338304607341	-0.128945294536	0
2.375	0	0
1.911268305082	-0.334701951691	0
1.986191885908	-0.110806668109	0
1.838390258011	-0.128853462534	0
1.75	0	0
1.670105949089	-0.197137117999	0
2.986685504441	-0.10889534818	0
2.838723720416	-0.127406828384	0
2.912854264006	-0.329775839393	0
0.75	0	0
0.664572693147	-0.222613872306	0
3.25	0	0
3.168798596028	-0.193682232199	0
3.337828500197	-0.125181208794	0
2.875	0	0
2.75	0	0
4.25	0	0
4.161099470995	-0.193412132741	0
4.332718836325	-0.127723897736	0
3.83511440706	-0.12403687807	0
3.875	0	0
3.75	0	0
3.901908238995	-0.321557035295	0
3.983050435256	-0.106770030737	0
3.665527023987	-0.190866765849	0
5.25	0	0
5.164693411436	-0.21656556845	0
5.338419985376	-0.147288917438	0
4.834321952324	-0.135810575609	0
4.875	0	0
4.75	0	0
6.25	0	0
6.178399669611	-0.137425451145	0
6.356205370496	-0.193853696818	0
5.817814980918	-0.161175429964	0
5.875	0	0
5.75	0	0
6.611939839541	-0.314381537706	0
6.522886280605	-0.104721203126	0
6.75	0	0
6.669178832877	-0.119404962711	0
6.836073690852	-0.177498311423	0
5.39059629209	-0.37339102075	0
4.660917359886	-0.204007052252	0
4.902096977384	-0.356327271651	0
14.897042426984	-0.319128540459	0
14.98121339776	-0.105010975498	0
14.832720105416	-0.123004000492	0
2.669265824618	-0.196872625129	0
7.656019919505	-0.144451020927	0
7.75	0	0
7.625	0	0
6.625	0	0
8.75	0	0
8.672937461928	-0.164309120831	0
8.834289374889	-0.109279841483	0
8.206809119751	-0.294811800109	0
8.187056112549	-0.110869448227	0
8.024316200302	-0.129362764133	0
7.157390904024	-0.111206354394	0
7.25	0	0
7.125	0	0
8.25	0	0
8.125	0	0
9.75	0	0
9.651145885459	-0.185384966231	0
9.827054067621	-0.122428024454	0
9.381816956327	-0.305807769915	0
9.476753337472	-0.101567493772	0
9.327490061855	-0.116748040282	0
10.75	0	0
10.655660803951	-0.196164841752	0
10.830485405183	-0.127989131147	0
10.386748323888	-0.329675548046	0
10.478464938155	-0.108955040137	0
10.328560245085	-0.126395562242	0
9.25	0	0
9.375	0	0
10.25	0	0
10.15270392044	-0.192469144253	0
8.328856990144	-0.128933011689	0
8.375	0	0
9.153857570119	-0.175508527296	0
11.75	0	0
11.660624577581	-0.201812344528	0
11.833823570609	-0.131890823957	0
11.395399221028	-0.337817920558	0
11.481219500696	-0.111845889235	0
11.331881500183	-0.129806070652	0
12.75	0	0
12.669299873111	-0.199190799603	0
12.839534650452	-0.128328673855	0
12.40897914742	-0.340185307353	0
12.485654611126	-0.112072117633	0
12.336727606385	-0.131188239877	0
11.875	0	0
12.25	0	0
12.164627546098	-0.202605127067	0
13.75	0	0
13.669268468008	-0.186168180444	0
13.837322273199	-0.120178339978	0
13.416957459915	-0.319650485848	0
13.487510959619	-0.105281058988	0
13.34010202956	-0.123833443479	0
14.75	0	0
14.66080663422	-0.189613659871	0
14.399926333663	-0.319306441484	0
14.4823067449	-0.105599641009	0
14.334114343934	-0.12250571155	0
14.875	0	0
15.25	0	0
15.158227025815	-0.185762723401	0
15.330441202311	-0.11956675178	0
13.875	0	0
14.25	0	0
14.163960939829	-0.186365139356	0
12.875	0	0
13.25	0	0
13.171786689458	-0.193064330135	0
10.875	0	0
11.25	0	0
11.158129238503	-0.198418008741	0
7.31587636932	-0.171642077952	0
15.3902841013	-0.308450173235	0
15.478958243586	-0.102394874489	0
-0.125	0	0
0.125	0	0
0	0	0
-1	0	0
-0.706889652808	-0.331752981492	0
-0.5	0	0
1.125	0	0
1	0	0
1.625	0	0
2.125	0	0
2	0	0
1.5	0	0
1.488007132967	-0.109900770852	0
0.5	0	0
0.474245721096	-0.130043839003	0
0.625	0	0
3.125	0	0
3	0	0
3.625	0	0
4.125	0	0
4	0	0
3.5	0	0
3.485533411273	-0.107014956798	0
5.67736414417	-0.368119689468	0
5.125	0	0
5	0	0
4.98353533542	-0.118243061674	0
6.125	0	0
6	0	0
6.009467825362	-0.139471566496	0
6.5	0	0
4.625	0	0
5.5	0	0
4.5	0	0
4.481603306259	-0.111052305129	0
2.5	0	0
2.486482293556	-0.110456056597	0
2.625	0	0
7.828740664136	-0.157959666613	0
7.5	0	0
7.497789303332	-0.098817221798	0
8.625	0	0
8.5	0	0
8.493725508365	-0.094448160765	0
8	0	0
10.625	0	0
9.625	0	0
9.5	0	0
9.125	0	0
10.5	0	0
10	0	0
9.976983002093	-0.106037154081	0
10.125	0	0
9	0	0
8.980258705317	-0.095443922293	0
12.625	0	0
11.625	0	0
11.5	0	0
13.625	0	0
12.5	0	0
12	0	0
11.983083448534	-0.113269018621	0
12.125	0	0
15.125	0	0
13.5	0	0
13.125	0	0
14.625	0	0
14.5	0	0
15	0	0
11.125	0	0
14	0	0
13.984735949845	-0.103165953766	0
14.125	0	0
13	0	0
12.987740386932	-0.109238757727	0
11	0	0
10.980033547654	-0.110118532971	0
7	0	0
7.012790729926	-0.096165366155	0
15.625	0	0
15.653391866104	-0.184257106926	0
15.75	0	0
16.25	0	0
16.151956269841	-0.190746813766	0
16.328162175541	-0.125534698515	0
15.827345422636	-0.12109528269	0
15.881623705918	-0.315197408181	0
15.9768075603	-0.104841845177	0
17.25	0	0
17.155473725888	-0.187015736188	0
17.328334720487	-0.12053442359	0
17.375	0	0
16.97978281674	-0.105790715925	0
16.830585534618	-0.124270763258	0
16.892220832712	-0.321708894118	0
16.75	0	0
16.655725821363	-0.19281499559	0
18.25	0	0
18.144056513649	-0.199584109463	0
18.322695877645	-0.133173012767	0
18.375	0	0
19.25	0	0
19.156955168382	-0.212194778097	0
19.332395147696	-0.137501625504	0
19.375	0	0
18.978107771567	-0.118463258117	0
18.827251646435	-0.137822523984	0
18.884674261801	-0.359498065923	0
18.75	0	0
18.648603260315	-0.210400354993	0
17.973004229039	-0.108213471414	0
17.823362138939	-0.124125311933	0
17.87020700187	-0.324156104502	0
17.75	0	0
17.64837652944	-0.187413016584	0
20.25	0	0
20.167288289523	-0.206556633625	0
20.33799343326	-0.133667464393	0
20.375	0	0
21.25	0	0
21.172020853715	-0.201327641466	0
21.340729826518	-0.130206344264	0
20.875	0	0
20.75	0	0
20.839555732676	-0.132066213667	0
20.987710400762	-0.112937783384	0
20.915843633601	-0.342386775443	0
20.669904108595	-0.203936882105	0
22.25	0	0
22.168893714495	-0.194483818359	0
22.337089427477	-0.126591453251	0
21.875	0	0
21.75	0	0
21.840184239699	-0.127666317168	0
23.25	0	0
23.162361450448	-0.215073727418	0
23.335945395372	-0.148199257458	0
22.875	0	0
22.75	0	0
22.83504078106	-0.133126573368	0
27.412614995451	-0.337768305098	0
27.406417478875	-0.760610856776	0
27.663031754041	-0.476449210851	0
23.674319496044	-0.139602731619	0
23.75	0	0
23.625	0	0
22.902876337082	-0.348446434986	0
22.664415839639	-0.19979598046	0
21.987454968006	-0.109075483352	0
21.916658702332	-0.330379709848	0
21.67241042914	-0.19774510361	0
19.984830323221	-0.115851903278	0
19.835879034474	-0.135573032779	0
19.906686139011	-0.351521653308	0
19.75	0	0
19.663378765328	-0.209646647928	0
24.75	0	0
24.672305039303	-0.121865624882	0
24.84054616259	-0.178479133746	0
24.25	0	0
24.125	0	0
24.179559510218	-0.145425217914	0
25.656694723316	-0.141492417978	0
25.75	0	0
25.625	0	0
25.25	0	0
25.125	0	0
25.159224348757	-0.109007087058	0
22.647257188685	-0.476376729768	0
22.872248033711	-0.780455516934	0
25.317652966423	-0.167196322239	0
31.908525182248	-0.237434634112	0
32.248547795208	-0.367887731521	0
32.025	0	0
26.398062594932	-0.327144710524	0
26.335089901602	-0.124890632532	0
26.169730315141	-0.188549564961	0
26.75	0	0
26.662500836065	-0.197477656933	0
26.835401004001	-0.129534360312	0
26.375	0	0
26.25	0	0
27.486869476066	-0.111474770432	0
27.338367230812	-0.130187170762	0
23.816158307302	-0.168335740772	0
23.875	0	0
24.625	0	0
27.75	0	0
27.67023663024	-0.198727549038	0
27.839431305592	-0.128541986375	0
27.375	0	0
27.25	0	0
28.75	0	0
28.666013303123	-0.192953151514	0
28.835335299513	-0.125393524551	0
28.875	0	0
28.41074998604	-0.32692743598	0
28.485854239984	-0.108071323096	0
28.338261561589	-0.126341817439	0
28.25	0	0
28.169650699531	-0.195402875109	0
29.75	0	0
29.656991685033	-0.201213204108	0
29.830700495316	-0.13323291855	0
29.875	0	0
30.75	0	0
30.665605116896	-0.213760177502	0
30.837855425721	-0.139272404211	0
30.875	0	0
30.987248292653	-0.119871959545	0
30.911614165903	-0.362389547989	0
31.25	0	0
31.174363802618	-0.217041176186	0
31.346460135447	-0.143418487957	0
30.400599561582	-0.360265197586	0
30.483280501431	-0.118794220148	0
30.3336351656	-0.137924489201	0
30.25	0	0
30.159375273254	-0.21004086356	0
29.392934647931	-0.331414044449	0
29.48031118177	-0.110263057575	0
29.331777210358	-0.127344913482	0
29.25	0	0
29.160548153072	-0.194064979946	0
27.167334579456	-0.200440763045	0
24.359650796728	-0.20304719459	0
-0.25	0	0
-0.404335947278	-0.221464959739	0
16.125	0	0
16	0	0
17.125	0	0
17	0	0
16.5	0	0
16.478267427857	-0.108008273171	0
16.625	0	0
18.125	0	0
18	0	0
19.125	0	0
19	0	0
18.5	0	0
18.473681471998	-0.115768873419	0
18.625	0	0
17.5	0	0
17.47687846862	-0.103462148239	0
17.625	0	0
20.125	0	0
20	0	0
21.125	0	0
21	0	0
20.5	0	0
20.486446843971	-0.114298370976	0
20.625	0	0
22.125	0	0
22	0	0
23.125	0	0
23	0	0
22.983281399654	-0.116385827149	0
23.5	0	0
23.509214189908	-0.149359691049	0
22.625	0	0
22.5	0	0
22.48467632496	-0.1093719097	0
21.5	0	0
21.488472844532	-0.111208801785	0
21.625	0	0
19.5	0	0
19.482219828947	-0.117572233456	0
19.625	0	0
24.5	0	0
24.525433875838	-0.108080714825	0
25.824234283709	-0.149177038136	0
25.5	0	0
25.498573523516	-0.096586408813	0
25	0	0
25.014769107289	-0.095147895568	0
21.919931345447	-0.741308582321	0
22.160361550711	-0.463896476278	0
26.625	0	0
26.5	0	0
26.482631880244	-0.108512805864	0
27.625	0	0
27.5	0	0
27	0	0
26.984612185119	-0.111680714924	0
27.125	0	0
26.125	0	0
26	0	0
25.990349817319	-0.10847866492	0
28.125	0	0
28.625	0	0
28.5	0	0
30.625	0	0
29.625	0	0
29.5	0	0
29	0	0
28.983089608831	-0.107750428826	0
29.125	0	0
30.125	0	0
30.5	0	0
31.63125	0	0
31.5	0	0
31.494696987447	-0.123712578064	0
23.671261205816	-0.380102168636	0
31	0	0
31.125	0	0
30	0	0
29.980228243528	-0.115525062547	0
28	0	0
[...]
CELL_DATA 2263
SCALARS 1600.00_0.97 double 1
LOOKUP_TABLE default
9.717995614798 8.1134800957942 8.2098397100515 9.1465139896485 7.935343284447 9.3555829523518 9.3826448135498 9.647159602516 9.6667105580144 9.933684118666 10.333034581999 9.188991243485 9.0170648633575 8.6469201431334 9.4850947795694 9.0530052171968 8.8426347396645 8.8313865911235 8.7982678390635 9.4161569304912 9.5715977703847 9.1350239886906 9.7500661826917 9.142205478398 9.0929492185582 9.3777714444345 9.7220501700952 9.2418045877727 9.5026042109564 10.846013156446 9.462757320316 10.525289707319 9.0510293322471 10.368666759854 10.278831015205 9.8578598807904 10.305122944139 10.142117890177 9.8039782865908 11.52005035577 11.058574202525 9.6346560425494 11.152594782671 10.351953621319 9.6668013499895 10.411355084757 10.755154070227 10.067440713137 9.9255499709944 10.383512329263 9.8791802647582 10.65244725119 10.693802602226 11.080164979948 11.0419328825 11.098282059059 10.345991405634 10.658514851801 11.205861680026 10.126573824757 10.657436179035 11.607411175068 10.88861233839 9.8925845310313 10.517532907556 8.0087909503167 7.9634720984663 7.0116763277909 9.3684648025412 9.3813280065527 10.424746063488 10.028350426294 10.133154227484 9.7456996443821 8.8219025261711 7.9748440146446 8.7034504103449 9.0706362069648 8.8074512123162 9.0422920935107 8.8422944575155 9.0413320191748 9.5561283272429 9.5235374302621 9.7124076344724 9.4427381779095 9.1369246592519 9.5194118987914 9.7570241364649 9.5471891931518 9.455679682126 9.4074078378956 9.6665592936988 8.9784127288897 10.505936618261 10.443778574545 10.308362395196 10.551681685657 10.466103311998 10.441139809012 11.553327911101 10.079767329799 9.749575984505 11.509113083719 10.816065255799 11.130702479074 10.093734282475 10.164365713197 10.058792882169 10.851014044921 10.713024902205 10.102731293394 10.197954103891 9.9304968669657 10.397810343962 10.880566663705 10.633068736692 11.28492319559 10.751149300309 10.976543925621 11.141078202436 11.260015550558 10.534109105216 11.164667262066 11.319503233496 10.547941958407 9.741278280403 9.5423626322139 11.135705106247 11.099791500324 10.922041040749 10.134610988341 10.11967202492 11.081657943531 11.471823206037 9.5857237250444 9.56917940469 10.373512388364 10.476476094895 9.6870933201916 9.5758134097731 9.8876256190315 9.9763577162879 11.531026260016 11.641882037242 9.5688218904131 10.236944624725 10.112754417313 10.245093154033 10.388728987811 9.7555045803274 10.120052250692 9.7082733115752 7.7984155345653 8.9834908363612 9.5510614273209 9.6942449146407 9.8518922331511 9.7246783085923 10.676891696003 10.612121887736 9.0414317062274 8.733355239391 9.9582126615287 9.6919234002043 8.2576107256778 9.6634701313309 6.2646081248404 9.0695492327251 8.5770320631135 9.3412978543154 8.8038987935144 8.9417223169161 9.0293750187742 9.3616464226501 8.9960351835151 8.8498479108964 9.9145337269051 9.9508268180921 9.7089319462146 9.7038297057661 9.3737784300421 9.3711179710654 7.7765994489336 7.65675230088 7.6707551433678 7.2748886271074 8.4410296445963 8.5556638222383 9.5979057855636 9.7944272449909 8.8034347565014 8.745749692989 7.6302560316154 11.203909698033 11.156666923314 10.801774784739 11.397601197291 11.080287117176 11.497508537593 9.9034244223989 10.360427463377 10.162745831969 9.7012700975996 9.6750212139588 10.233409649135 10.224505436449 10.066088955275 11.343698173263 9.6363565225162 10.019289541771 10.947066980589 11.568812670115 10.466494985664 10.33708093479 8.949303253377 10.166950683467 9.4141947122363 9.7796047566173 10.132813507752 10.234541581737 9.8406573179331 10.358624883841 10.666127335266 9.6043285627533 10.610341424698 9.0824003715774 9.8209377318635 10.023321901688 9.6482411722669 8.5695307917568 8.6488327474563 8.977263133649 8.9748287423287 8.995042000309 8.8086560008105 9.4936425553334 9.6871820609673 9.6654603998905 9.9870911231205 7.9351302929919 9.6511735056536 9.9962864469645 9.4591248072382 8.6578455038011 8.3091530551356 8.8147977657696 6.8463320636228 8.9718617970622 7.703635618608 9.8766601173007 9.012142432601 7.4798053740603 9.4984742800431 9.9510117502716 8.91022383346 9.7570703709724 6.9575391649812 10.959465324322 7.9631544525005 9.3643723757047 8.589716802936 9.387803544336 9.720489799139 9.8242668741647 9.7041814241555 10.273446330711 10.221266572848 8.9342075563244 9.2614195953537 8.8543653837392 8.7895994154584 9.0292638949813 9.3369046999433 8.8223345965032 8.9948757162532 9.4220524276006 9.7380270019097 8.6908180133885 9.2088652315158 7.8708880467446 9.5450937626028 9.2527181969925 9.6804482989867 9.4654289576575 9.6262683473416 9.562362466801 9.3520198570984 10.615875892627 10.501537883645 10.273207473187 10.282289728905 10.515386442299 10.155818066624 10.461574185447 11.470887408355 11.57444234997 10.960758025029 11.446897084547 9.9244280338527 9.8396874957701 10.684972041503 10.334827102036 10.079831791071 10.384041142999 10.047237017742 10.053202303362 10.797194649078 10.890278174235 11.18517197929 10.997600837249 10.55071632192 10.642656311143 11.195072956165 11.306878327181 10.577635285823 10.884871714703 11.0961378196 10.944895886039 10.387947651732 10.288973321292 7.4363247103951 11.066107324461 11.164512710302 11.137245300637 11.313912475261 10.457641775005 10.228119819668 11.379495095538 11.332780023217 9.7923349260548 9.6635648832852 10.248920380775 10.660311103697 9.6578729212607 9.8966718778993 10.163985936816 9.9698433477618 11.397097599451 11.436116345573 9.8281597639351 9.7349826236093 10.587672695482 10.2204849138 10.399038635263 10.340131070695 10.174676122584 9.8782434186913 9.1356481183924 9.0112695534558 9.9198025065639 9.947552571312 9.8160428117312 10.056753479944 10.596174690962 11.083662918193 9.9918785932404 9.4340607192714 9.7383094198935 9.7122286192754 9.0448829233315 9.8647775486474 8.7831800216289 8.7203442063019 9.5548932904533 9.1953521616727 8.967260744952 9.3292327368562 9.9431672493789 10.010098932377 9.5637585321025 9.95917626458 9.5230679095365 9.2501511346348 8.150051445119 7.6086711986586 7.6213417157039 6.9194448501974 8.8235300625668 8.4274835855892 9.9088762304035 9.7595528402891 8.805664923161 8.9733300231457 9.0042521110976 9.0123787327412 6.4789898907032 7.8497635345979 6.6088385208091 8.1035428253331 6.7271707100545 8.902239733283 9.0634313756145 8.94948969649 10.363245447116 8.6535236782013 9.2160827949598 9.5257434712845 8.7085388264092 8.4798531778515 8.4007830518532 9.1190732476177 8.431997863066 9.5086642106729 8.9165252221686 8.6866242196774 9.5140185705496 9.1574775552119 9.2386907160347 8.1630927092566 9.2489069007066 10.58086116283 9.3715841954739 6.1877870681276 8.8381823434831 9.1101877528641 9.6570877982839 9.4672440961109 10.242451576702 10.352226790895 10.389767028871 10.169282735993 9.531755868348 9.7263606204953 9.6089766229517 10.269882842741 11.26504459539 9.8846305419856 9.9354264026359 10.256946092155 10.199239315326 10.233479909594 10.903847035097 9.5234666872378 9.8966929260705 10.155898205184 10.576758346551 10.212151535473 10.733276947505 10.279121272588 11.25209593348 10.350656884725 10.929868376197 11.107444274676 10.661944787309 10.720089784744 9.929939089595 10.203258103456 11.024093604147 11.25254209921 9.1336113873628 10.062968753036 10.11221054324 11.162728128289 10.686433273282 10.927358859523 11.565835015991 9.2862482413048 10.827713613826 10.974893569464 9.9572284036475 9.2502729298705 9.6069213718503 9.9149484198506 9.7623015862609 9.5605616330881 10.648568187906 10.162318667417 10.715780238281 9.5550737741019 9.3473722465781 10.419667426222 10.758650584396 11.074636612367 9.3629787922265 10.152511943562 9.4893500328223 8.962711825403 9.70444506509 9.668163108079 9.9643598664197 10.102508104238 9.9024936739739 9.660430756198 9.8094710833752 10.311760075139 9.7251979875509 9.7824375510167 8.7401477225596 8.5790882972859 8.8147689222218 8.2608745276121 8.8510096225228 9.0678919861274 9.1284946415461 9.5724446579246 8.4136022650805 9.1889501522157 9.797424626563 8.933510177728 8.7951767580863 9.1218135147994 9.8018105381142 7.944623045308 8.5022082252857 7.1423782865777 8.2741909372522 6.3678895225573 9.4290088729164 9.1539733609047 9.6949073676347 9.8119805455403 9.0610047119395 8.4986156163564 9.629482552036 8.7895307267166 7.2265631458346 7.234916388946 7.2704297935204 6.7646997402214 8.2724059559698 8.3963620603031 9.3288020924286 9.4902375133862 9.382713020148 9.6564053172264 9.8845331090644 10.261340077938 8.9896240237062 9.1457636666438 8.5961862542296 8.7092478540503 8.9404697091096 9.1954393501927 8.7027760659595 8.8982579797829 7.8337244626483 9.5861791276694 9.3576481307234 9.1559328271395 7.2963446980076 9.1833014258385 9.1057445235822 9.7259201918225 8.6160928887598 9.5783067246719 9.1631571980561 9.4257604459525 9.8200885140114 10.583997674383 10.221125877659 10.326636125484 9.2041175639279 10.426487271227 10.069978381669 10.26034195416 11.122860695705 11.57413474631 10.835476683937 11.300729838535 9.7113520767929 9.7158131950207 10.186105090533 10.355318232106 10.010176504547 10.225321313487 9.8042870315946 9.9609200049889 10.567661922578 10.73065913907 10.794467309264 11.051118598852 10.360356575837 10.459028522342 10.914890942458 11.244345769238 10.519689581728 10.794686107642 10.670566193795 10.915470773217 9.3603854638117 9.989078580722 10.816614800882 11.096444342023 10.809113787193 11.184045357686 10.10232071834 10.173719136894 11.021839877242 11.46850191569 9.4927956391854 9.6032661489263 10.095387515303 10.528652053089 9.5015434264664 9.7100631752856 9.8575395778106 9.9602659921688 10.971054014627 11.542136635696 9.5569682668274 9.635113234998 10.065111415252 10.24438013772 10.03067370985 10.366404847648 9.0645153333694 10.02689048372 7.6299987358067 8.9855735585476 9.1509623470044 9.7821727639616 9.6598483008228 9.8583641055846 10.392368926759 10.831539348051 7.6937045460749 9.1069348358378 9.013829031267 9.7043432003582 8.5247128182572 9.6842734451063 8.8011603858021 8.6289939653712 8.5260960140787 9.2650148337476 8.9228579763875 9.1617591715163 9.7097821398743 9.9582726504281 9.5272595999774 9.8496034646721 9.1644690579526 9.3190392683876 7.7501005138108 7.6303410249688 7.0977281467244 7.0293593247486 8.4856887253953 8.4816226846928 9.5605299239779 9.7669184235219 8.6725732813126 8.8918579075092 8.2783161302991 8.8025989495804 7.4594871308367 9.7213160439359 8.4595065701485 9.3308476234357 8.8705086769534 8.6825056228891 8.4004769620942 9.179986601681 8.2367881641977 8.4863846883231 8.6578550181026 9.1454923266275 8.4613177108114 8.5171986024832 8.3231107812533 8.3118933995262 10.027106578519 9.6660112615556 9.065144819792 9.7551280327172 8.7288806397604 10.11715314649 8.4292489254981 10.120785449273 10.276821921642 10.098841955641 8.1282941178467 8.7085930688658 9.0550050993175 10.237177056402 10.481341924029 10.442502025087 8.8371960156812 9.9608639907126 9.5658157102356 10.984838755721 10.309512045143 10.023182901293 9.6323184482905 9.9233664128402 8.6787345819742 7.9147877237906 8.9676917104812 10.296909606149 9.5585329757373 10.809818469917 8.825336899308 9.4948553735427 9.4968285674204 10.611752191135 9.4895325796304 10.224391435285 10.06225808908 10.165485311967 9.5114553693126 10.266334142792 8.9980391161522 9.8778522518184 9.3642310408031 10.211430125497 9.2485189320006 9.5868298799575 9.4922552176259 9.9933892613228 9.4677837407811 10.107589189408 9.8644242198408 9.5205357061768 9.3059850212021 10.204358450643 8.5144205276685 10.258557935224 9.3270341973322 10.629742102979 8.3658680677147 9.0531236057795 9.2030828323618 9.660922957983 8.9134536780107 9.67013514431 9.2584998529821 9.8469947203575 8.7575001264707 9.7518657412945 9.5474269210486 7.8910756326579 9.0830441127854 5.9177845594559 7.9062636364156 7.7190838271524 7.1524399167292 8.7317441242407 7.9543976047542 9.213456349955 8.5208306138929 9.546679168096 7.1172630286686 9.3132432395971 9.3722767615085 8.5965423093253 9.2083389151144 8.9059648670133 9.5394602356326 9.2327239898047 9.2670774286941 8.6358313082254 8.240750244837 9.7199106602524 9.209642178711 8.9187702225181 8.4702347708477 8.8431348599744 8.2736511025657 7.5859326075281 7.3772586506232 6.7848347666663 6.7893558930766 6.2820043451358 7.8949557400419 8.5065765077867 8.5832157981138 9.1903549780637 8.6621211194531 9.4611491932852 7.7760849404274 8.246322981949 6.8260840489687 7.3846323511129 9.1061096192557 8.0024394158487 7.4588682955878 7.8983363866362 7.6114582859907 8.0511420717031 6.5699017975312 7.1027912191129 6.3053573338857 6.4310707637904 6.1458259839418 9.1962682797221 7.2862962201731 8.9371024823639 8.2985280857667 8.5967685212377 8.3417011337809 7.5911203020569 7.9626229307288 8.3167613923644 10.079516915614 7.7860509812452 7.7830138606207 8.6859343827649 8.3981037549062 9.489203590307 8.5826300623821 8.0488586527792 10.353432435862 5.717480175837 9.139485884944 7.801596270267 8.6409823342087 7.9453849956277 7.8684554977305 7.6112549053091 8.0623904991502 9.0896529671172 9.2156852313603 8.8752179200531 7.3085896288011 10.02819442627 9.1716594950968 9.6693397646392 9.3020631420243 10.04970607756 9.1493388134107 9.6559321977656 9.225426702156 9.4409385673303 8.7865845191192 9.7709584250674 8.8608509210458 10.254608700575 10.240224817896 10.285869508099 9.4821021362546 10.145057200312 9.5296537379402 9.9556531273996 9.3246357217286 8.2866930321883 8.8484227288359 10.135013161927 9.245441703747 8.5458378936079 8.1957699837453 5.3897072684047 8.1398638503897 7.2021390023194 9.3387919531469 8.8526560228383 10.147474342451 9.533935634158 9.3356765073727 10.23587439498 8.7869131788378 9.4215371705386 9.3133210057627 9.0388321711637 8.8246123701415 9.1876429418425 8.4239498729913 9.5684205821671 8.9027696624229 8.6174055205774 7.7288448961197 9.6230923853903 8.7857019683189 9.974281707396 8.6874668053724 8.8679042712517 8.3442909050014 9.3678033459416 8.6151078190318 8.5544829709362 9.3441718061906 9.2026525341564 7.8773872338027 6.3306772845432 8.2009983784708 9.5967289166138 8.7286658712929 7.7556863034897 8.0423861552462 8.2266046378972 9.7575148420003 8.9576758909067 6.148202776014 8.4535889372088 8.3833421156364 6.3578409332221 8.1965938425322 8.9422949628713 6.4985857502173 8.2156569426006 8.4839607507808 7.7771760478699 6.5500581833829 8.3770688854811 7.745840741305 8.8532637298807 8.16366026706 9.1490338155883 8.5272512695248 7.9852988043683 7.6354056865647 8.6092957750776 9.063469140138 9.6900752152631 8.1373824943449 7.7560053856393 6.8740831264907 8.9901621485649 6.0044465659888 8.4931816965838 9.2082394211788 7.8024081432504 6.7607210796176 7.6558480926368 5.4275226093627 5.9518574894369 8.92330689795 7.2095643774155 9.2049112866839 7.2674203925889 6.81891194893 7.0986774806971 9.2570520781281 8.307607254202 8.8084967545845 9.3284898560623 8.4197375585437 7.2920539707154 9.4544968627107 7.4298704025196 5.8003638081964 6.5733944698747 6.6784481344817 8.1810487985907 6.6718745086708 9.0376745447412 9.1137478642058 9.0293384426308 9.0535724221882 9.4255463849465 8.1522502544749 6.0785760633376 7.9130519427591 8.8867070779463 5.8973221212501 9.5097048357164 8.8575202196267 7.2969908175911 9.4115209230018 6.7908007092575 8.815300369462 6.3129526545914 9.1055356890022 6.7709008663171 8.5449353108895 6.0578107386891 8.3639285247328 6.2745606207665 9.3554546935603 5.3544081184303 8.543498292225 8.5532105258688 5.7690885393256 3.8568602004085 6.8652044660328 8.01970151083 7.4452419109446 6.7834650698957 8.541198293402 7.3408037672188 9.3068945978046 6.9954394749239 6.5955779934388 8.616230020907 6.9883781569143 8.4467547779784 6.3389055920218 7.1036483630348 8.0360941857963 6.5486503801804 9.1396742213978 6.859897393857 8.4482105318514 8.8667573882447 7.3918535658813 6.492652101876 7.7450952606739 5.5536170224728 8.5391376736722 8.526521637972 7.7167501083749 8.7852177242365 8.5818918712052 4.9685816751259 8.4594086163146 6.209726577545 8.0580997478974 6.1889171270608 8.5906739770377 6.1946930728097 7.8771267989097 8.2347440548293 6.3247018972927 7.646703173786 8.312713142843 7.9971146037277 7.7238720045059 7.1898643938419 5.8768419918783 7.2718240444515 6.6438647702067 6.1654554388138 8.465119908169 6.4822428347153 7.9061884293935 4.9479721085295 8.6005310605134 6.0031350880588 8.063817132545 8.8096803661814 8.9262391117419 7.9379904283313 9.2594805800067 7.3623263424561 8.1899444511935 7.6598758725738 6.7875025669742 5.5512916997121 7.4729979884428 5.8306476168201 5.2591806784219 6.6322991719695 5.7422495700146 6.7622156066107 5.6652446959124 6.2265512027847 4.3066027546055 6.6291957999247 6.3174113150793 6.6181844208644 6.0220267257707 6.0117337356278 5.0899722568899 6.397311785177 6.3871103323086 6.7687675685577 6.4361623673859 5.6389607500309 6.690239593519 6.0665648751568 5.9740131155454 7.9298502816117 6.3331486975361 6.2836343762191 6.411029258704 6.201752216084 7.0068694719983 5.9271214950106 8.241463257384 8.8894747438672 8.3656195063528 7.5842117429045 5.6567555543524 7.3191479686683 7.1129304587818 8.573144825471 6.4811912730711 5.7310362784059 8.283369883848 6.5252765120926 5.4720591824463 6.5223558332523 7.3022226883286 5.764429185389 5.8704501504166 6.5171353714867 6.0754879413246 4.7422500630453 5.8582065619779 5.3631428346268 5.5410095568469 4.746732408476 4.8276078562499 6.5702005824291 5.1165152640085 4.327234026432 4.0605891362115 3.5382920939451 4.2849445483098 4.5748345800611 7.1735398921933 7.3167276704941 6.7486557571766 6.8396017385123 9.6194929491722 5.7709972403377 6.5750699164005 6.2363674592189 7.9345100496097 8.5624684621434 5.7576689630296 5.968581730495 6.7701166359013 8.0654839636373 6.303131319527 6.1180004278423 7.8863620348716 6.502963496986 5.1519170161667 5.6846094236151 5.9514931629946 5.4184505052168 4.5553112772703 5.5070355796174 4.9241822937364 6.3165013726812 6.8021949221286 6.7149239937519 5.3417376401307 6.1459990843897 5.9483207894617 5.6801048458642 5.2877093231592 5.4327849547725 5.3921367050672 6.9411975177387 5.4299659740557 3.7973541373892 6.8768523509666 5.9007003298674 4.9201450957892 5.0906666951613 5.906537451842 4.9051902611495 4.7522828574958 6.3273373734321 6.9826925787236 6.9537271621409 4.7895964074631 3.8864762666121 5.3772252307777 6.4316566676009 6.3325708970178 6.4388421432627 6.7461794264684 5.7014981090082 5.9069464988255 5.0603168738004 4.8809349417355 4.3672153213768 4.8727672756282 5.781268565201 4.3499441316645 3.8619912865373 5.1537975036083 4.251983525405 4.6121220863377 5.3612707000416 4.8466082865091 5.6993306515067 5.624204997205 6.0969988787422 6.563842110311 5.6552441253072 5.9558233002928 6.5226688772155 5.2634773701512 3.2199772796796 5.8089634553931 5.7818415723209 6.3831966975323 4.7775445283499 6.3628696533337 6.0581004062787 6.1101139432225 5.9030373331613 5.1518518806801 4.5419480712837 5.6639571610477 4.7114323263045 7.034236543947 7.3395163969958 5.0755133544453 5.8171707936714 4.7325610605054 6.0827129781595 6.7667246771887 6.7267206343753 4.8975773450218 5.3971568484148 3.6468954083169 5.1132034324625 4.5393862186184 6.8068075764265 5.4823579836478 5.8501916736509 4.962654071899 4.4028097430113 5.6369245092755 4.9735127012365 5.9187688279318 4.3089522748172 4.3912383997168 6.4022245417996 5.224607895348 4.573077729119 6.410361098594 5.3425170381475 6.2559106580021 4.6545950875458 5.4545860186922 5.405708726242 4.6950361510737 5.7025477308253 5.1580899096914 6.8840868433258 5.8811348280187 5.7138221533877 5.5536955117068 5.8786085673333 6.3555386423784 6.4511601960503 5.5045823978116 6.3997170468848 5.7881521252248 4.719332621558 4.2009779434231 4.7381790214337 4.7755552134287 4.9762311163672 5.13915119159 4.2948801393568 5.8950288280561 6.4597924377906 3.256632493461 4.6033233432841 5.8103169166791 4.4498853787306 5.8454637287816 4.7790793195832 4.7596152814091 3.7318701114175 5.1108127899517 3.7581834399926 3.9405448369946 4.959612261396 4.3815174956886 4.9829778849982 5.9677848056067 5.1000666081724 3.9654229344502 4.1979034061962 4.7194980186954 5.3089443403967 6.5029322192384 5.5094702706