# vtk DataFile Version 3.0
d-2__ created by libgimli-v1.1.0
ASCII
DATASET UNSTRUCTURED_GRID
POINTS 570 double
14.5	0	0
14.25	0	0
14.386963504964	-0.201738469428	0
22.399299936458	-0.310870122736	0
22.129824335287	-0.229914148082	0
22.126320781198	-0.518791771445	0
8.472303742627	-0.591754876635	0
8.780507935475	-0.76092407121	0
8.82173151259	-0.349253271447	0
18.663262297679	-0.667179415955	0
18.934786529245	-0.453308328646	0
18.636898038907	-0.29588182328	0
4.016904362632	-0.85330676142	0
4.076038737616	-0.331410355179	0
3.713721571226	-0.470767763626	0
1.89953779852	-0.269343012166	0
1.633800503821	-0.203067612233	0
1.644492760828	-0.441295523531	0
4.368408037607	-0.250833874131	0
4.337474161742	-0.544420985055	0
4.67745607622	-0.378433532554	0
1.406172533733	-0.772361039307	0
1.913288206557	-1.218576310882	0
1.90687689783	-0.651895683444	0
2.5	0	0
2.25	0	0
2.347047126858	-0.185539804102	0
1.374000926997	-0.300418771701	0
1.25	0	0
1.114902662369	-0.201591505098	0
1.067401015567	-0.470108640981	0
5.75	0	0
5.699780065382	-0.324747799653	0
5.924584257371	-0.172748359932	0
0.883560935405	-0.231136840652	0
1	0	0
9	0	0
9.117836368049	-0.253904480787	0
2.625577516194	-0.346770599322	0
17.859079774019	-0.943547525024	0
17.535029634209	-1.703182852412	0
18.338018094476	-1.366069799339	0
19.932263871771	-0.826489183604	0
19.881635677668	-0.346204516721	0
19.622287080959	-0.573770479943	0
1.5	0	0
1.75	0	0
23.25	0	0
23	0	0
23.109690227386	-0.220340974338	0
2.75	0	0
2.142562771237	-0.172460438312	0
2	0	0
23.332392704446	-0.202507275941	0
23.5	0	0
19	0	0
18.75	0	0
18.888143078348	-0.195773419804	0
2.90152418742	-0.185685383897	0
7.612175045312	-0.180627982114	0
7.527150943175	-0.401430797998	0
7.881917737402	-0.30462800112	0
25.630635194756	-0.512020961038	0
25.243766894324	-0.80097755811	0
25.758031115142	-0.952821630144	0
3	0	0
28.84859809239	-0.201276387394	0
29	0	0
28.75	0	0
4	0	0
3.835807353334	-0.199536243303	0
3.106904732949	-0.178783649348	0
29.25	0	0
29.092446172194	-0.305987136665	0
13.5	0	0
13.667851890428	-0.185102765244	0
13.75	0	0
3.75	0	0
14.407363653886	-0.441423674912	0
14.125469935998	-0.279652141152	0
4.25	0	0
5.061980176718	-0.407989246181	0
5.335512032876	-0.269401530321	0
5.113979852892	-0.173834924157	0
11.882046000841	-0.812345557852	0
12.478640631525	-1.146569360669	0
12.244190771573	-0.565936619511	0
3.633270844505	-0.195395238442	0
14	0	0
18.378272976509	-0.514977451159	0
5.5	0	0
9.619519097921	-1.16461851757	0
10.030576753886	-1.587265312651	0
9.961661342999	-1.070235523667	0
5.25	0	0
5	0	0
13.157975569138	-0.830425793913	0
13.83833027638	-1.238601004239	0
13.671302359608	-0.710707966059	0
11.325917093147	-0.8366783502	0
11.612143285947	-0.506264798476	0
6	0	0
7	0	0
6.83842404292	-0.188923754932	0
7.11236984822	-0.391746146843	0
6.631875629497	-0.169178192832	0
6.75	0	0
3.21002197083	-0.595267231049	0
3.445510026908	-0.608065324465	0
3.362318141622	-0.306501255187	0
6.120159502895	-0.164221934939	0
4.538525595924	-0.906226152762	0
13.233775457127	-1.737244787017	0
4.5	0	0
16.138065841822	-0.472802517973	0
16.126746690205	-0.221608117926	0
15.859319180798	-0.326402762318	0
26.080401003391	-0.227842452866	0
26.25	0	0
26	0	0
3.019224421113	-0.401469974918	0
8.234901607028	-0.35771789179	0
8.518285578354	-0.242327591839	0
8.328777073389	-0.153008859619	0
7.25	0	0
7.400656881666	-0.195280611572	0
7.5	0	0
5.385509485898	-0.709154879541	0
5.948697127931	-0.745234910621	0
8.75	0	0
8.5	0	0
8.25	0	0
2.214249105773	-0.404278959534	0
2.896561357202	-0.792481120253	0
9.25	0	0
4.920911116561	-0.192028847294	0
9.651670336652	-0.200847798694	0
9.849824537955	-0.19917205686	0
9.75	0	0
10.095049354068	-0.315754204277	0
10	0	0
3.25	0	0
6.738406513564	-0.710129601907	0
7.121614580011	-0.943026074581	0
11.345829942703	-0.314788260019	0
11.25	0	0
11.104427225455	-0.188863495516	0
6.052412255932	-0.372556729023	0
6.373371846535	-0.274163514827	0
10.25	0	0
10.380281579003	-0.241092027437	0
10.5	0	0
10.75	0	0
10.909079077441	-0.189427130481	0
11	0	0
6.25	0	0
6.5	0	0
4.75	0	0
3.5	0	0
10.672815698565	-0.318467932684	0
10.772487906066	-0.787092734739	0
11.020900486567	-0.439266778492	0
8	0	0
7.75	0	0
11.5	0	0
11.619450354736	-0.231443672836	0
11.75	0	0
8.139317726831	-0.163309591658	0
12.25	0	0
12.158949464947	-0.235415698299	0
12.412455385193	-0.275030800337	0
12.929165084344	-0.221336108042	0
12.686337592177	-0.258437422252	0
12.900449535554	-0.462768612232	0
12.5	0	0
9.405755833308	-0.325979504745	0
9.111697192308	-0.594170467817	0
9.457257345083	-0.753685223931	0
18.101369157139	-0.618560521812	0
18.336839281097	-0.861122419318	0
10.385948631267	-0.570640149046	0
9.5	0	0
13.411260455969	-0.342646276848	0
12.643108055516	-0.590179775368	0
13.137744715761	-0.195204172124	0
13	0	0
21.25	0	0
21.358341816502	-0.326561417551	0
21.5	0	0
13.816492716597	-0.40394453634	0
20.25	0	0
20.423452336785	-0.313445603959	0
20.5	0	0
17.789350393153	-0.390447709085	0
17.987794057246	-0.401472255242	0
17.881276545163	-0.206424156589	0
19.564465692234	-0.270867872644	0
19.290725118801	-0.49926248604	0
16.392319441256	-0.29915360323	0
19.443730892406	-0.923508713428	0
20.457987075478	-0.803203365193	0
20.167450719332	-0.505159975143	0
0.103762538371	-0.253013629949	0
0.267057015134	-0.483604909932	0
0.374713194419	-0.2320817565	0
13.25	0	0
17.415572543912	-0.230682214253	0
17.5	0	0
17.25	0	0
18.108153655084	-0.208141099276	0
18.25	0	0
18	0	0
15.75	0	0
15.544586046819	-0.246453491997	0
15.122708481244	-0.193620038745	0
15.25	0	0
15	0	0
19.75	0	0
24.149237782749	-0.319013340846	0
23.842766599446	-0.577371105011	0
24.183995039967	-0.73159476451	0
13.871646321742	-0.17394291424	0
23.862588150518	-0.245417872715	0
16.84024277193	-0.203626765466	0
16.704049384397	-0.435508179396	0
17.112673188265	-0.38804641709	0
24.75	0	0
24.832880292394	-0.290571430318	0
25	0	0
16.40158555625	-0.755912194683	0
16.850299990829	-0.757941865332	0
17.75	0	0
23.567455674596	-0.325197491724	0
16.25	0	0
16	0	0
22.645812614293	-0.197864648876	0
22.75	0	0
22.5	0	0
16.75	0	0
17	0	0
24	0	0
26.914424714815	-0.337869958787	0
26.621963281699	-0.624626679172	0
26.977877660759	-0.778408201088	0
26.622424322919	-0.264588309935	0
19.34462271879	-0.199329831305	0
19.25	0	0
19.118057075065	-0.225686869553	0
19.5	0	0
26.75	0	0
27	0	0
27.5	0	0
27.604422363523	-0.298869962794	0
27.75	0	0
17.650384190064	-0.227839036584	0
18.343198956448	-0.236734208617	0
18.5	0	0
24.25	0	0
20.143897114391	-0.233773711865	0
25.5	0	0
25.25	0	0
25.344389320279	-0.31693710653	0
21.059546193318	-0.24845941382	0
20	0	0
25.842927934822	-0.248287716678	0
25.75	0	0
25.613904645132	-0.216025146631	0
21	0	0
11.763551406169	-1.481607093928	0
30.981104050195	-0.5526690913	0
30.873880294509	-0.217692518774	0
30.706626759758	-0.34945139905	0
20.75	0	0
20.85240828135	-0.178025243856	0
23.75	0	0
20.66289882074	-0.189089155251	0
30.204950808504	-0.791758966623	0
30.715535843381	-1.149995259266	0
30.543724897762	-0.572259098027	0
30	0	0
30.180216671806	-0.343473673313	0
30.25	0	0
23.229584388362	-0.458653998547	0
29.5	0	0
29.623391954444	-0.322069028408	0
29.75	0	0
21.618913855927	-0.233585823579	0
21.75	0	0
29.348490380579	-0.521100538161	0
29.36294710412	-0.230601226356	0
22	0	0
22.25	0	0
28.25	0	0
28	0	0
28.129259193923	-0.314252106503	0
28.44374413871	-0.484576386004	0
28.100199615755	-0.812038297775	0
28.649230646972	-0.871769248311	0
28.618403654115	-0.227691192115	0
28.5	0	0
28.387848605749	-0.205892081491	0
29.054768525933	-0.708603081552	0
29.344906532636	-0.846887322836	0
26.327430876245	-0.35930637997	0
10.349120516034	-1.04150119828	0
10.894920134778	-1.514321070539	0
24.59640839418	-0.191760546865	0
12.75	0	0
24.5	0	0
13.102881121377	-0.411296235356	0
25.099388239946	-0.214879887129	0
25.97986022697	-0.52841375324	0
24.398993403151	-0.196312410538	0
17.860840746535	-0.577367743328	0
17.566481510048	-0.529340016102	0
26.5	0	0
16.637148248735	-0.188015807345	0
18.183918302467	-0.396443618316	0
27.159348252167	-0.205297590358	0
27.357530053515	-0.198815038154	0
27.25	0	0
15.060354649709	-1.112587998155	0
15.51532665618	-1.043792149387	0
15.178150912169	-0.713100616689	0
10.051363365948	-0.719159376333	0
14.661248691948	-0.27865166374	0
14.75	0	0
27.868836823455	-0.217301839861	0
31	0	0
30.75	0	0
-0.020273477909	-1.415389842481	0
1.054972770973	-1.487485199502	0
0.512583677021	-1.0438154777	0
0.75	0	0
2.361419414365	-0.794513604096	0
29.890297721653	-0.2433406165	0
30.473599299501	-0.238575611274	0
30.5	0	0
30.660802173874	-0.161931182737	0
28.783812899585	-0.467926883932	0
4.937022539393	-0.72440615077	0
6.696914540879	-0.380672503721	0
7.434272221796	-0.695675918868	0
15.339606453815	-0.166204802571	0
15.281953315711	-0.388999642276	0
11.893544445085	-0.335972898148	0
12	0	0
9.753796445798	-0.478866225926	0
7.720012958977	-0.638314519759	0
21.871398197179	-0.313006985103	0
21.615176662754	-0.521922347305	0
21.856785525528	-0.665128848631	0
20.792152536902	-0.448319093295	0
21.109577821412	-0.527879642114	0
21.360297691811	-0.734200004244	0
15.547854961707	-0.580173571081	0
24.496861814148	-0.467031445896	0
25.067351422649	-0.463427753535	0
24.81263825963	-0.684738154192	0
22.865620821195	-0.218348593093	0
23.443705587002	-0.773171720633	0
27.277617447467	-0.489224417775	0
27.863714790534	-0.471681393437	0
26.239117668995	-0.863279739365	0
29.896797054636	-0.547765129844	0
29.612773839625	-0.699757135752	0
29.867172666547	-0.87444432816	0
29.610354212963	-1.521444655905	0
29.59548165142	-1.071765512911	0
29.115129171034	-1.220660174798	0
31.345359428525	-0.458952144926	0
31.144859415042	-0.241304201582	0
15.919565295974	-0.746550096707	0
16.063006820294	-1.289595303187	0
16.5	0	0
14.900855313538	-0.178071167744	0
14.161016743654	-0.72559708689	0
19.011498044983	-0.834202892304	0
16.760433281999	-1.263698818643	0
17.280361389946	-0.931704507314	0
-0.627742252535	-0.296285438777	0
-1	0	0
-1	-0.5	0
0.625738545692	-0.228405936136	0
0.5	0	0
3.313957665883	-0.865581185485	0
3.619156095452	-0.800599314657	0
[...]
CELL_DATA 986
SCALARS 160.00_0.24 double 1
LOOKUP_TABLE default
12.13136088195 10.305386260707 8.8117840507451 8.8923041959329 7.9817171920432 10.426525671863 9.1134616910592 6.1628752672828 11.571374298234 10.130070061344 9.6168145425341 11.36583646437 10.489274079538 11.276275464036 11.083317105298 10.637119674007 5.1681028364865 8.4177129145475 12.926282240427 12.672248902944 10.994554093455 11.129548930288 13.016547306323 11.232979053567 10.221103330369 11.081267905163 10.931785176892 6.8480586223996 11.694023043021 11.157257479594 10.055475627911 10.650726039133 11.320341397053 11.940781029006 9.8598150341433 10.952175563345 10.167577442055 10.086910719843 7.3097999501719 9.8659420028059 12.886851375731 8.8498644447613 11.004671243246 5.5394191212722 10.930327125697 10.626303946021 6.9366805255374 8.1323799785425 11.623523825739 9.9214228405215 10.597416615902 9.7853413704619 7.8747782320263 10.889455586569 7.6475071871314 11.472435453609 5.4642262778343 10.423542294252 10.479645377395 9.9052860802233 10.829872166205 9.9130250953819 11.303715188736 12.713375412648 11.165803138319 11.163852024681 8.2438105175142 8.3859068843729 11.606161279136 9.4506302436126 11.961380875349 11.858686604887 10.516122690183 11.71825567747 10.429017330275 8.2166603271234 10.627872825655 10.835456103816 11.16733717169 11.322653860981 9.515908756935 7.6487367996638 11.833094223388 9.9803211083079 12.576861503509 13.549501631404 10.23962743305 12.235764214845 11.461105236924 10.736942848608 11.238881475609 11.882105837502 9.5176006854005 10.202605062723 9.5447007354417 12.464305874995 11.485896761716 11.931790456951 11.581796846764 12.436490931228 10.422780409864 13.108237873443 10.306083512287 10.750082571069 8.8434246281566 8.0070579859249 10.512673960716 10.335264195285 8.7810290453908 10.426146309092 9.772649454272 11.236615037652 10.099396487099 10.436872981171 9.6537053898818 14.68075702819 10.121401840337 12.099371553798 9.3899741858683 10.559630952053 7.8071866765667 12.137121956701 9.1007227919032 9.322531256187 9.922458794643 11.63345561843 9.1270696146037 9.4653297803472 11.900552213547 11.26306603606 10.345864904169 11.915135320808 10.980028438721 11.464224805833 8.2481119482304 11.007034878085 9.347055586119 11.106141711214 9.9788739293835 8.3562142512068 10.804124169156 9.1695278748764 12.140474126586 11.289032890198 13.959329944408 12.473798071243 10.297931313958 7.4940864997147 9.8581377497401 8.5070560963342 11.650297806882 11.913922551529 9.6025335030704 11.899983073225 10.062538411072 11.295551542784 11.529618988748 10.519859733139 9.6152691147067 9.2451973432276 13.113356030618 10.9159886173 10.605942748615 13.232553825036 11.323834468332 10.928626293556 6.2846901920136 8.7297690187165 12.226102648839 9.7584564188088 12.403714444551 12.088452818657 7.3470423199502 9.2829704131359 10.878615922706 10.362008949945 11.633821811607 11.277801791072 9.4075715823358 10.312425845378 12.831650919291 11.094832421065 11.385259986964 7.3147244951168 7.1266533315822 12.520523963703 11.205987418914 12.088880723506 9.5665401735387 7.4601031971062 8.60790234655 6.1557056925534 9.892069493608 7.3087879055505 10.131683759453 10.467762201486 7.1741094747093 10.769685615663 10.471271211181 9.7956182509618 10.797096760248 9.7183054890995 10.785865719851 10.388001442134 10.872721675294 8.2677748621831 10.492589034961 10.255928834869 10.962219948326 11.300896751921 10.483634697554 10.915116642979 9.2699228593524 9.9720989624793 9.8921237268873 9.964638458498 6.991147533827 10.007300966782 6.590730318056 9.8348299244603 10.427385730852 11.473752533188 10.926122542488 12.284092774144 9.7736795601282 11.129204117034 11.023744716639 9.847219162052 8.871672332158 12.256966991383 8.5184450754934 5.812974600978 10.829339270369 10.69684622305 10.22828961256 11.519492025981 10.133939584304 7.0821661390004 10.846783024428 8.7069111917565 9.5133321839144 9.0201962868164 11.316507770155 10.601066863036 8.9848213174795 10.535583823054 10.100663053561 8.8005715617261 9.1031435061739 9.7889049709382 9.2599089113288 10.040385270482 7.7323360903802 10.382773513652 10.737895592239 9.5530889488884 11.550526638557 9.8309588867252 11.8299740758 7.7946015987016 10.138172814892 9.5054728874558 11.218562059729 10.331007536218 9.8429264477613 11.966155576441 8.9894637402474 12.417162896202 9.7234357588367 9.8381598213326 9.5459932677663 10.303496580636 10.515719311275 10.133723698656 11.498403905544 11.339217794846 11.038315802329 10.91274256982 10.724796857462 11.407741842485 8.368386403546 11.219927996237 12.871597827918 11.732989180789 7.5260220695258 12.407193026195 10.516476749222 12.049042276926 11.895634538613 10.766642491336 9.4487326778969 8.7742347495719 8.829450834746 12.373937898612 10.053822961957 10.688280247544 10.184579968971 10.913629321693 11.341995982397 11.350552053465 8.9246026144162 11.981440897756 12.058995404668 10.477129029397 9.4210468257144 8.8147770712224 10.530376673498 11.549002568225 9.7643858874261 10.74644183205 9.9465703691937 10.948604506292 9.84220625135 10.057286517298 10.225103159898 8.8604081155482 11.221108571859 8.479845203472 9.3459168062305 11.138496909509 9.2038341926602 10.266395039464 10.013862982938 9.5535029979687 9.2607052071367 9.3697477475748 12.016460020958 7.6442992516518 7.4444887709212 5.4329611398338 8.0815595007004 8.3189556960183 8.9614320000688 10.295328485582 9.3163193770913 10.094711603057 8.6049373589541 11.108300630317 8.7208516579726 11.399033712634 6.5237215402578 8.0271101108549 12.287989386991 11.641718955232 10.990786688681 9.8526321007542 10.758911521479 10.948191132194 10.244731909092 9.7622962816731 10.315496220405 7.1857659655729 9.9541882825327 6.7968085019839 10.438536747775 6.6053177151358 6.0415001734319 8.5913679646661 8.568357329536 10.792698774644 9.9761707964545 6.6512212357589 7.4109114526566 9.155523690756 10.93795139413 7.928446692459 6.8352625460715 6.6513312536637 7.5291514973762 11.133567498441 12.078962619589 10.053493751407 8.7416592445781 7.6692791627502 9.1385654637173 10.43194001216 8.6001325004484 11.71897861592 10.282847551327 7.8204024970097 6.3103122528808 9.6138353345593 9.7119365180978 11.547528282762 11.83393331254 10.346733579662 9.8751990826484 11.153555500827 7.4148558405335 12.823764787689 9.0313721809581 8.9038867547218 7.8336193375166 10.376408457432 8.9508311633377 11.406027716243 9.1107555206457 9.0575017666051 10.713296305578 9.8783906831133 11.60115074062 11.588323106397 10.237277557954 9.966424931738 7.3667671435226 11.713341608796 7.8291081075067 10.24307997311 10.835691524269 10.295916027347 11.766802317347 9.4237045367874 10.227624162493 8.709290164934 9.9556652331758 9.7326364277304 8.4345992042409 8.0260480169142 6.8011232385875 8.9477168769822 6.5880042250075 11.049586305414 9.7383823054058 8.1976178219208 8.3170042954181 9.8855446659893 7.8140398850844 7.3456967321444 8.5327664187541 7.3758422966881 8.1382904105978 11.321089772249 10.027553290871 9.4827429813796 8.9452354352082 8.8057237438715 6.2571930881434 8.9737739615252 5.4317829794466 9.2425325884671 6.0873585439348 8.4556494701192 10.859241363738 9.9775856327447 6.7869386935665 10.058315990769 5.1790349869588 10.651096329639 8.1468193337947 8.9740201099552 11.785916326398 11.263075200533 10.916181400158 9.0090164784111 5.9005441393097 4.6529286019006 8.3765184228302 10.149524066676 8.0202217336065 9.9369736163173 7.741860957229 10.388319045823 8.7794903850844 9.7269607595639 9.1233101884249 5.8000086297269 6.3287559861839 9.3292129711066 6.9065730458885 5.5958162780364 7.199048116531 9.8590962036913 7.1986504387062 5.8371707658501 4.9643089374449 10.505244114064 8.6589873788842 9.7411574204899 8.7026778253417 6.3672229329642 8.4783370938226 6.4962472798701 6.7688595563684 10.941151372724 8.7896490593475 8.6874591165177 9.064074134561 10.769665760928 7.6456606926255 9.9036001745557 5.436737052997 8.7249090329121 12.616976913845 11.397085988397 8.9685007411957 6.8536335052098 5.148290631476 4.1546086309881 7.8939870091095 10.53986030579 7.8151911839702 7.4794973448006 6.3387497114983 7.7439102799617 8.6112122909021 10.750620461019 6.083240927273 9.7416753077726 10.789384743062 4.5222807892934 9.1316984546787 11.825416955824 10.872688588299 6.3396648263215 8.4690455889747 9.5576003757444 7.4565272910945 6.7080213159935 5.8080763200732 10.441088350905 10.201897050988 5.8391623636343 8.5587283160753 9.1735089647849 6.9525651477983 6.0859162250847 5.4054896130137 10.195431842373 9.0256267104115 7.3742574430501 8.2811182478585 8.4225274252322 8.3487096848904 9.221672499675 8.2156805429565 8.1512141071975 10.375495065849 9.6446920141531 5.2744210591196 3.6638545900245 10.630673097197 6.1171563573604 11.456370356153 9.1495979609884 5.9520051753601 9.5097034636153 4.2190901231259 7.3928596345509 3.6326101993768 4.5886941403231 9.4840941859837 5.8880690873821 10.077088689384 5.6000928578402 10.487359709648 9.6788016253217 7.2027103301958 10.010598474659 5.131320483525 6.3555591604003 8.1407681677782 7.0487998488613 8.2346744488616 6.0341348009301 7.6180011757496 9.5864928891724 5.543614863431 4.9969360002793 9.0306966513376 7.9852812162677 11.637529985662 7.8450701701963 10.936093990658 7.1604609122087 9.7594006353899 9.8747367477586 6.4617731975834 4.3139268254275 8.4707677411969 7.5508291730797 7.6111545917355 7.7618591797812 11.514802998217 9.9948446932797 5.4157589892227 9.3491807120209 10.394795330257 8.4392470929684 8.7330912661364 7.8537215420175 8.4631077157102 7.5161667167374 4.2650144333433 8.9193275168998 4.4946739940507 8.0617663451326 9.1891352338895 9.716160242075 6.6754639628458 8.4859696915281 9.4818569127817 8.9064470074017 8.3527288100804 6.7128194445304 5.247234558716 4.1765657991503 5.4088166757441 7.8198227967254 9.4830761540245 7.5195859210507 6.4463474510348 7.5899636716386 5.9708760594737 11.866575416499 5.8790295796836 11.118426261226 10.103693492697 3.8283638384778 8.7205420987613 9.3248780015378 9.2301829631006 8.624664612365 7.3829218103459 6.4439776416982 6.308163106499 6.0639591753535 7.650667853083 9.2458791999376 3.939526473092 5.0990791947404 4.5371965938569 5.782681572372 5.0982336780407 8.8138297231428 6.7860395968699 8.5529192944336 4.8912942150142 5.1194234771523 6.0240126458251 8.7894406774562 4.6267728679907 4.3744924798355 6.9368592173497 5.9506726482913 3.8033195252008 6.1554356608107 10.66963648711 9.632081055046 7.3858980776952 4.8782405230544 5.5082187719812 4.6552461321584 7.1747367950833 7.4559332067656 7.4957666410317 7.5687068843918 7.6774480572131 8.0957528892458 6.4018352093338 7.6906719533629 6.6340035461707 7.7432422961661 6.0538124079852 7.4442556720197 7.8407344147133 6.6458820720644 7.252325090822 7.1047440637767 7.1693718348625 7.4833941814234 7.5112898379605 6.8365782520362 7.2387223982704 4.3204070673116 5.696878075787 9.9247724914915 4.3896728060969 10.391833695904 7.3100827925839 6.8965656663837 6.7858059397825 7.8351346775788 6.0277017337132 5.0941115889621 5.0601769612674 5.1240827111189 5.5557879209355 9.8247798162855 12.277539075365 10.840340047633 10.220965921576 5.3163898889944 3.5257830900287 5.8582351314674 6.3285802810573 6.8953518701801 5.8415233141646 6.2618745380383 5.2698415992308 6.4213892883241 7.3939343843058 6.7458228737741 6.7629507290759 6.6143585663847 6.9912831308545 6.1798015972103 5.5740183824181 7.1017387966427 7.0357568631271 4.7327619746906 3.4105721393487 3.1693703732465 4.6915678035184 4.1300033159957 6.8313799484394 6.755575177747 8.4059079750164 6.4421131935025 12.342109132194 11.648557639488 4.2085205128559 4.5918558862192 9.2939389469081 5.7797746149076 3.9674475373945 4.1101483255545 5.555706760108 7.4265497204988 11.293981545186 7.4671280002402 7.4972918915442 5.9111619785416 5.6711779033429 11.213701221881 4.9438089790166 8.2199145693002 12.059659825161 5.8402414363353 4.4771210342589 9.5336380866135 9.4454624028073 5.4878088461848 4.8644021780288 4.6737619371033 6.8538610543689 3.7110654586447 5.4437217650451 3.6432890442206 3.497556607316 4.1038632257474 10.311034476806 5.3155184844451 5.7925478941933 5.0903471105966 5.3633541343655 4.7018671479404 6.469510556377 10.750016465438 3.8012613048756 6.475834019531 3.2727502948245 4.0578241218387 5.3918658973145 4.5837607363451 3.849934538121 4.1510798136203 4.4040979829247 4.3967463098626 5.4059834357704 3.8991659992857 9.7670812070561 5.3307268989949 3.7811454108064 4.1532512186658 4.9862927833536 4.9068978629532 8.1170594261236 7.6075863616236 9.2516687583947 8.9039900645228 7.3356128974921 8.234445010777 6.3252689970959 7.1011955760758 8.6986072294324 8.0792711179507 5.6858121024889 6.6931546681119 6.2574151387979 8.737581208506 7.4055141205322 3.387720701847 5.1686138254 6.0414609395159 4.3303010669451 4.4360946011337 4.0737786138019 4.1803536612627 3.8514350665576 4.8105601109082 3.8468746622235 4.6143923320198 5.5302559588447 11.187560941867 4.6466451404963 5.4661311977082 5.5017929717317 10.850203711177 8.2049073960611 3.7209179513301 3.6797968683775 3.4039176607374 4.4621405927697 5.14405291167 12.768190694271 3.7300963053484 4.2899217830339 4.5907046807232 3.2018220554625 4.4473314962434 5.3482341791177 4.8948534876691 4.7837111241476 4.1752716635838 5.1512931779727 4.6278849638737 3.877045013704 5.271056840653 3.4298716007456 3.8808034110656 4.5489889072221 4.0961852535686 3.2707959101075 3.7614579277537 3.3828042147416 3.5885366058906 3.5279891152421 3.4987404229042 3.5022485500843 4.6517337952356 4.2604652238792 5.4217004617967 5.82168332164 3.7302919363031 3.3766679301103 3.2986668180388 4.2969852349379 3.3804502530616 3.4476394364741 3.4060001747459 3.4112258410115 3.5295894199457 4.0292743837194 3.6272970478214 4.5444770714953 3.247291443483 3.2274145309623 4.119063228064 4.0730379689874 3.2032117788356 3.1760172445974 3.4207394588495 3.4523309594866 3.3356005699461 3.441617077698 3.3159534475222 3.4837656292463 3.5948462916103 3.333392014997 3.8560502010272 3.4386342314893 3.4401726686584 3.2723631991539 4.2518603446567 3.1850679359984 3.3249201913538 3.2549188027052 3.1472872912673 3.1452508620555 3.2831660161025 3.3005929096487 3.5462180583408 3.3884557541711 4.1084205258325 3.2754368913916 3.8167657444599 3.1423739882679 3.2084782005767 3.6009867701712 3.9257746399102 3.3160544083039 3.2641266999421 3.1733194685274 4.7738400106478 3.6983423082901 3.907881607212 3.678347795887 3.2873415994807 3.2549954751747 3.2078062660646 3.1868142315665 3.9853767658363 3.3376130070209 3.3819962170417 3.4578276369036 4.2002186890261 3.7010573932714 3.8446162017206 3.1421858983013 3.2679640082572 4.3497990963577 3.9900890363966 3.5782618477968 3.3920340804988 3.7752584513654 3.1521843557517 3.5413669579024 3.435831252814 4.1821691943514 3.3606249277947 3.4794545456048 4.0961732077819 3.4267061881025 4.0577501142889 3.5909082759733 3.5650282779242 4.1593155782971 4.3301248812299 4.1258182197447 3.4602266032982 3.760009035625 3.2544514364037 3.2118774785511 3.2606778381525 3.3303496348948 3.4922960560174 4.0486994892156 3.9495294651945 3.848783236465 3.6641292098682 3.9081772998313 3.7568428021176 4.2648171893875 4.36144333008 4.2585670386152 3.4845546926503 3.4005183230519 3.3798550706469 3.6128737339746 3.8472530065549 3.2466950866223 3.3740173420644 3.6323898742133 3.4222138732918 3.6083795963445 3.4531965158376 3.8106711335291 3.8532355261277 3.9631517733003 3.783398801586 4.1319218140345 4.1832311849526 4.0500195352949 4.0109513706248 3.9527046461904 4.1454200850638 4.166850407645 4.1571457877142 4.1027605550136 3.6057785783982 3.376257153294 4.17776567375 3.7316309728483 3.5618783405953 3.7719861272999 3.9023478824785 4.1186233175641 3.7634609409645 3.9337089363539 4.2098011584407 4.1178174587064 4.1044404027579 4.1671392357889 3.8515796932737 4.1645925836072 4.1200796837599 
SCALARS 20.00_0.13 double 1
LOOKUP_TABLE default