# vtk DataFile Version 3.0
d-2__ created by libgimli-v1.1.0
ASCII
DATASET UNSTRUCTURED_GRID
POINTS 570 double
14.5	0	0
14.25	0	0
14.386963504964	-0.201738469428	0
22.399299936458	-0.310870122736	0
22.129824335287	-0.229914148082	0
22.126320781198	-0.518791771445	0
8.472303742627	-0.591754876635	0
8.780507935475	-0.76092407121	0
8.82173151259	-0.349253271447	0
18.663262297679	-0.667179415955	0
18.934786529245	-0.453308328646	0
18.636898038907	-0.29588182328	0
4.016904362632	-0.85330676142	0
4.076038737616	-0.331410355179	0
3.713721571226	-0.470767763626	0
1.89953779852	-0.269343012166	0
1.633800503821	-0.203067612233	0
1.644492760828	-0.441295523531	0
4.368408037607	-0.250833874131	0
4.337474161742	-0.544420985055	0
4.67745607622	-0.378433532554	0
1.406172533733	-0.772361039307	0
1.913288206557	-1.218576310882	0
1.90687689783	-0.651895683444	0
2.5	0	0
2.25	0	0
2.347047126858	-0.185539804102	0
1.374000926997	-0.300418771701	0
1.25	0	0
1.114902662369	-0.201591505098	0
1.067401015567	-0.470108640981	0
5.75	0	0
5.699780065382	-0.324747799653	0
5.924584257371	-0.172748359932	0
0.883560935405	-0.231136840652	0
1	0	0
9	0	0
9.117836368049	-0.253904480787	0
2.625577516194	-0.346770599322	0
17.859079774019	-0.943547525024	0
17.535029634209	-1.703182852412	0
18.338018094476	-1.366069799339	0
19.932263871771	-0.826489183604	0
19.881635677668	-0.346204516721	0
19.622287080959	-0.573770479943	0
1.5	0	0
1.75	0	0
23.25	0	0
23	0	0
23.109690227386	-0.220340974338	0
2.75	0	0
2.142562771237	-0.172460438312	0
2	0	0
23.332392704446	-0.202507275941	0
23.5	0	0
19	0	0
18.75	0	0
18.888143078348	-0.195773419804	0
2.90152418742	-0.185685383897	0
7.612175045312	-0.180627982114	0
7.527150943175	-0.401430797998	0
7.881917737402	-0.30462800112	0
25.630635194756	-0.512020961038	0
25.243766894324	-0.80097755811	0
25.758031115142	-0.952821630144	0
3	0	0
28.84859809239	-0.201276387394	0
29	0	0
28.75	0	0
4	0	0
3.835807353334	-0.199536243303	0
3.106904732949	-0.178783649348	0
29.25	0	0
29.092446172194	-0.305987136665	0
13.5	0	0
13.667851890428	-0.185102765244	0
13.75	0	0
3.75	0	0
14.407363653886	-0.441423674912	0
14.125469935998	-0.279652141152	0
4.25	0	0
5.061980176718	-0.407989246181	0
5.335512032876	-0.269401530321	0
5.113979852892	-0.173834924157	0
11.882046000841	-0.812345557852	0
12.478640631525	-1.146569360669	0
12.244190771573	-0.565936619511	0
3.633270844505	-0.195395238442	0
14	0	0
18.378272976509	-0.514977451159	0
5.5	0	0
9.619519097921	-1.16461851757	0
10.030576753886	-1.587265312651	0
9.961661342999	-1.070235523667	0
5.25	0	0
5	0	0
13.157975569138	-0.830425793913	0
13.83833027638	-1.238601004239	0
13.671302359608	-0.710707966059	0
11.325917093147	-0.8366783502	0
11.612143285947	-0.506264798476	0
6	0	0
7	0	0
6.83842404292	-0.188923754932	0
7.11236984822	-0.391746146843	0
6.631875629497	-0.169178192832	0
6.75	0	0
3.21002197083	-0.595267231049	0
3.445510026908	-0.608065324465	0
3.362318141622	-0.306501255187	0
6.120159502895	-0.164221934939	0
4.538525595924	-0.906226152762	0
13.233775457127	-1.737244787017	0
4.5	0	0
16.138065841822	-0.472802517973	0
16.126746690205	-0.221608117926	0
15.859319180798	-0.326402762318	0
26.080401003391	-0.227842452866	0
26.25	0	0
26	0	0
3.019224421113	-0.401469974918	0
8.234901607028	-0.35771789179	0
8.518285578354	-0.242327591839	0
8.328777073389	-0.153008859619	0
7.25	0	0
7.400656881666	-0.195280611572	0
7.5	0	0
5.385509485898	-0.709154879541	0
5.948697127931	-0.745234910621	0
8.75	0	0
8.5	0	0
8.25	0	0
2.214249105773	-0.404278959534	0
2.896561357202	-0.792481120253	0
9.25	0	0
4.920911116561	-0.192028847294	0
9.651670336652	-0.200847798694	0
9.849824537955	-0.19917205686	0
9.75	0	0
10.095049354068	-0.315754204277	0
10	0	0
3.25	0	0
6.738406513564	-0.710129601907	0
7.121614580011	-0.943026074581	0
11.345829942703	-0.314788260019	0
11.25	0	0
11.104427225455	-0.188863495516	0
6.052412255932	-0.372556729023	0
6.373371846535	-0.274163514827	0
10.25	0	0
10.380281579003	-0.241092027437	0
10.5	0	0
10.75	0	0
10.909079077441	-0.189427130481	0
11	0	0
6.25	0	0
6.5	0	0
4.75	0	0
3.5	0	0
10.672815698565	-0.318467932684	0
10.772487906066	-0.787092734739	0
11.020900486567	-0.439266778492	0
8	0	0
7.75	0	0
11.5	0	0
11.619450354737	-0.231443672836	0
11.75	0	0
8.139317726831	-0.163309591658	0
12.25	0	0
12.158949464947	-0.235415698299	0
12.412455385193	-0.275030800337	0
12.929165084344	-0.221336108042	0
12.686337592177	-0.258437422252	0
12.900449535554	-0.462768612232	0
12.5	0	0
9.405755833308	-0.325979504745	0
9.111697192308	-0.594170467817	0
9.457257345083	-0.753685223931	0
18.101369157139	-0.618560521812	0
18.336839281097	-0.861122419318	0
10.385948631267	-0.570640149046	0
9.5	0	0
13.411260455969	-0.342646276848	0
12.643108055516	-0.590179775368	0
13.137744715761	-0.195204172124	0
13	0	0
21.25	0	0
21.358341816502	-0.326561417551	0
21.5	0	0
13.816492716597	-0.40394453634	0
20.25	0	0
20.423452336785	-0.313445603959	0
20.5	0	0
17.789350393153	-0.390447709085	0
17.987794057246	-0.401472255242	0
17.881276545163	-0.206424156589	0
19.564465692234	-0.270867872644	0
19.290725118801	-0.49926248604	0
16.392319441256	-0.29915360323	0
19.443730892406	-0.923508713428	0
20.457987075478	-0.803203365193	0
20.167450719332	-0.505159975143	0
0.103762538371	-0.253013629949	0
0.267057015134	-0.483604909932	0
0.374713194419	-0.2320817565	0
13.25	0	0
17.415572543912	-0.230682214253	0
17.5	0	0
17.25	0	0
18.108153655084	-0.208141099276	0
18.25	0	0
18	0	0
15.75	0	0
15.544586046819	-0.246453491997	0
15.122708481244	-0.193620038745	0
15.25	0	0
15	0	0
19.75	0	0
24.149237782749	-0.319013340846	0
23.842766599446	-0.577371105011	0
24.183995039967	-0.73159476451	0
13.871646321742	-0.17394291424	0
23.862588150518	-0.245417872715	0
16.84024277193	-0.203626765466	0
16.704049384397	-0.435508179396	0
17.112673188265	-0.38804641709	0
24.75	0	0
24.832880292394	-0.290571430318	0
25	0	0
16.40158555625	-0.755912194683	0
16.850299990829	-0.757941865332	0
17.75	0	0
23.567455674596	-0.325197491724	0
16.25	0	0
16	0	0
22.645812614293	-0.197864648876	0
22.75	0	0
22.5	0	0
16.75	0	0
17	0	0
24	0	0
26.914424714815	-0.337869958787	0
26.621963281699	-0.624626679172	0
26.977877660759	-0.778408201088	0
26.622424322919	-0.264588309935	0
19.34462271879	-0.199329831305	0
19.25	0	0
19.118057075065	-0.225686869553	0
19.5	0	0
26.75	0	0
27	0	0
27.5	0	0
27.604422363523	-0.298869962794	0
27.75	0	0
17.650384190064	-0.227839036584	0
18.343198956448	-0.236734208617	0
18.5	0	0
24.25	0	0
20.143897114391	-0.233773711865	0
25.5	0	0
25.25	0	0
25.344389320279	-0.31693710653	0
21.059546193318	-0.24845941382	0
20	0	0
25.842927934822	-0.248287716678	0
25.75	0	0
25.613904645132	-0.216025146631	0
21	0	0
11.763551406169	-1.481607093928	0
30.981104050195	-0.5526690913	0
30.873880294509	-0.217692518774	0
30.706626759758	-0.34945139905	0
20.75	0	0
20.85240828135	-0.178025243856	0
23.75	0	0
20.66289882074	-0.189089155251	0
30.204950808504	-0.791758966623	0
30.715535843381	-1.149995259266	0
30.543724897762	-0.572259098027	0
30	0	0
30.180216671806	-0.343473673313	0
30.25	0	0
23.229584388362	-0.458653998547	0
29.5	0	0
29.623391954444	-0.322069028408	0
29.75	0	0
21.618913855927	-0.233585823579	0
21.75	0	0
29.348490380579	-0.521100538161	0
29.36294710412	-0.230601226356	0
22	0	0
22.25	0	0
28.25	0	0
28	0	0
28.129259193923	-0.314252106503	0
28.44374413871	-0.484576386004	0
28.100199615755	-0.812038297775	0
28.649230646972	-0.871769248311	0
28.618403654115	-0.227691192115	0
28.5	0	0
28.387848605749	-0.205892081491	0
29.054768525933	-0.708603081552	0
29.344906532636	-0.846887322836	0
26.327430876245	-0.35930637997	0
10.349120516034	-1.04150119828	0
10.894920134778	-1.514321070539	0
24.59640839418	-0.191760546865	0
12.75	0	0
24.5	0	0
13.102881121377	-0.411296235356	0
25.099388239946	-0.214879887129	0
25.97986022697	-0.52841375324	0
24.398993403151	-0.196312410538	0
17.860840746535	-0.577367743328	0
17.566481510048	-0.529340016102	0
26.5	0	0
16.637148248735	-0.188015807345	0
18.183918302467	-0.396443618316	0
27.159348252167	-0.205297590358	0
27.357530053515	-0.198815038154	0
27.25	0	0
15.060354649709	-1.112587998155	0
15.51532665618	-1.043792149387	0
15.178150912169	-0.713100616689	0
10.051363365948	-0.719159376333	0
14.661248691948	-0.27865166374	0
14.75	0	0
27.868836823455	-0.217301839861	0
31	0	0
30.75	0	0
-0.020273477909	-1.415389842481	0
1.054972770973	-1.487485199502	0
0.512583677021	-1.0438154777	0
0.75	0	0
2.361419414365	-0.794513604096	0
29.890297721653	-0.2433406165	0
30.473599299501	-0.238575611274	0
30.5	0	0
30.660802173874	-0.161931182737	0
28.783812899585	-0.467926883932	0
4.937022539393	-0.72440615077	0
6.696914540879	-0.380672503721	0
7.434272221796	-0.695675918868	0
15.339606453815	-0.166204802571	0
15.281953315711	-0.388999642276	0
11.893544445085	-0.335972898148	0
12	0	0
9.753796445798	-0.478866225926	0
7.720012958977	-0.638314519759	0
21.871398197179	-0.313006985103	0
21.615176662754	-0.521922347305	0
21.856785525528	-0.665128848631	0
20.792152536902	-0.448319093295	0
21.109577821412	-0.527879642114	0
21.360297691811	-0.734200004244	0
15.547854961707	-0.580173571081	0
24.496861814148	-0.467031445896	0
25.067351422649	-0.463427753535	0
24.81263825963	-0.684738154192	0
22.865620821195	-0.218348593093	0
23.443705587002	-0.773171720633	0
27.277617447467	-0.489224417775	0
27.863714790534	-0.471681393437	0
26.239117668995	-0.863279739365	0
29.896797054636	-0.547765129844	0
29.612773839625	-0.699757135752	0
29.867172666547	-0.87444432816	0
29.610354212963	-1.521444655905	0
29.59548165142	-1.071765512911	0
29.115129171034	-1.220660174798	0
31.345359428525	-0.458952144926	0
31.144859415042	-0.241304201582	0
15.919565295974	-0.746550096707	0
16.063006820294	-1.289595303187	0
16.5	0	0
14.900855313538	-0.178071167744	0
14.161016743654	-0.72559708689	0
19.011498044983	-0.834202892304	0
16.760433281999	-1.263698818643	0
17.280361389946	-0.931704507314	0
-0.627742252535	-0.296285438777	0
-1	0	0
-1	-0.5	0
0.625738545692	-0.228405936136	0
0.5	0	0
3.313957665883	-0.865581185485	0
3.619156095452	-0.800599314657	0
[...]
CELL_DATA 986
SCALARS 160.00_0.88 double 1
LOOKUP_TABLE default
8.0092565637086 9.267637958702 8.2877505212275 6.3885738662171 5.6134323669359 9.1027705324802 9.0772931195916 5.9928730084188 10.098387318888 8.099151197358 7.8634847379369 8.2690713345591 8.5565122841836 11.487759428239 10.141224060949 7.4817276686206 4.2585664413921 7.6591382317217 9.6097673546567 9.7777207067786 9.465442579645 10.086929188349 10.844998029379 9.6426928974102 12.145862337164 8.8117260297247 9.3872432461555 6.2128514810151 8.3087206606547 10.723375207453 7.1306899051586 10.048017159646 9.7086038275168 12.670761820141 4.799909289469 9.9384177086814 13.43173885664 9.0961481876349 5.2928125461447 4.9011316820874 7.6921555919211 5.5637838419011 9.9805452450184 4.4214014114798 10.543343401942 8.9952645928274 5.9309068992807 6.7439508566859 7.9501581456608 8.9452118009612 8.1003090723177 5.3251696712481 5.7118748116185 9.1900292875855 6.8975533028444 8.2129707286929 4.3818987842358 15.977426461987 7.7899475485977 5.2435174212851 8.7335686594139 8.5789859648094 12.503573798678 9.6945046092231 15.785076198311 14.68211868447 7.458064201188 6.8848845913793 10.904279876559 8.8274664514014 11.136706036304 14.877881735491 13.67810940712 11.51143144362 9.7763308735666 7.2805863237196 11.460463090047 9.6976542896178 11.999905260837 10.856651956599 11.959743042843 5.4887725531664 9.9453209166429 8.293175884068 9.0181730500416 16.679095755783 8.2546898166141 8.7273497689878 16.63726551007 13.817558304134 8.7717986145595 10.160387366935 9.4449865124074 9.9560145752031 9.001794687124 10.220727121297 10.196603578342 10.887263782867 14.335112442534 10.382118558185 11.862685272564 8.2139303681321 7.8076196178247 12.947859525252 6.4067545657367 5.2953376006293 9.6158327624188 7.012044914268 7.6450900324378 8.5732033645556 6.9580236902723 9.7251714956316 9.2265100120221 6.3424253513545 8.7336335656238 13.378741191353 8.4740270218456 8.3660271991084 8.4055623233424 8.0069330787741 6.8037831653462 11.390687374775 8.352657129653 6.5698688163018 7.9785104435051 9.4758849441394 7.7059624405195 6.4153810496458 9.264512212705 10.021043939378 8.2121701962293 8.5086863332821 17.165296606929 8.786678891532 6.2586732812423 14.145810032391 7.538746018947 12.974326249598 12.44744114107 7.0783797349308 8.1191920567321 8.1703095002139 9.0985655388892 14.11032778039 26.828300870447 17.641740935253 8.2219157053661 5.9746884220789 8.4220832326312 7.0819252086205 9.809969240014 10.606885129496 6.7751440596934 9.1602323526239 11.82673526313 11.726678144882 11.705766936798 6.4357395217604 6.2359331062669 7.4322414769861 12.951696616562 8.4811261171061 6.3407123499182 13.932112450268 12.411142908302 6.4710434307418 5.249591070268 8.1827558849804 11.389779473182 10.973836051474 12.71733012566 8.7196482926787 5.6075744535358 6.2967048363951 9.3794202158861 10.574389334593 9.8477345871337 8.2400392723337 9.2574639089418 10.547098637285 11.725970945027 10.480156797526 10.900024871771 6.020166570092 6.32110906656 10.225230436343 10.625948565453 10.669385747654 9.1718241477351 6.6621303449927 7.5847989760274 5.3355129716182 9.9897021496315 5.2299195896378 10.104254088779 10.115043777884 5.1081273653743 10.392438829027 9.5555463326294 8.290963315745 10.774804693261 8.9515919824986 6.1260142764289 7.6779061586399 9.3374693228816 6.8472334379535 8.7253335539415 9.2632878580676 8.8577446120337 12.517436882736 7.6450425496928 10.880081410881 8.1723795607361 6.5411044223428 5.8766050540844 5.4865086728644 4.6959138909813 7.4529849447167 5.2016374473305 8.7783786707618 9.3706346753127 8.8342232939489 10.547307992468 8.3934217870743 10.796377258998 10.007647071429 10.333734389577 11.43673173768 8.3805797061843 9.534053202174 10.096127640391 4.9274778662478 10.155078382821 9.890556835855 10.232238128766 9.782531522916 9.0558755889277 6.7775665570486 8.3773493893297 8.5129176789962 6.43552314058 6.4469322172129 10.048047093174 9.5064158861317 8.7892901399324 11.525509672747 4.880662833603 9.1906590240812 9.5085450093061 6.7927809667517 6.019472808487 7.1926499721173 6.4224694137492 9.350709632613 10.817543562721 5.4279250227857 8.9138090538766 9.4555523971277 8.7026731682635 6.9108983658325 9.2723231426407 10.357529385558 10.384953589673 9.2693283872407 6.7338631314796 13.432609377266 7.7239293019216 8.7388810989966 5.2182865220627 6.0272338212065 8.7708372942081 10.170594175724 8.7986625671184 8.9076983761801 14.550443410332 13.096012324354 6.5380791853477 7.7981099551287 9.4897008706022 7.6044394264894 7.5133184011042 8.9031727780176 17.438503785398 11.499761515229 6.099516082293 12.420568835205 8.5757007745785 11.960706540133 11.945255020486 9.6076317225242 8.222505163534 7.9340650895912 7.2574934285127 10.093441276442 8.3200264949098 10.926123892812 7.6655397128428 9.8851255269152 12.952175647229 8.681488929349 6.0738814808876 8.9835177207882 11.586409688951 10.148041817272 5.5032786034438 7.6083548298254 8.8902798411493 9.3413102034009 8.1581315059207 10.137451908381 9.3348139557475 8.8822368633798 6.2105343077623 7.4139451600373 9.2694256905834 7.7173884332361 13.591179104851 7.3564939476396 6.5828437352233 10.015802460394 8.4773948479928 10.037980986651 6.2340775859676 6.2123916743007 8.1979128876164 8.3907035704453 13.931403463572 6.8251345690876 6.0284329471833 4.5511242311839 8.3274728000782 7.0405588258953 8.4397808550852 8.9437161062 7.6271489024274 9.2671633272628 8.8707024863615 11.929408173452 7.9188443893381 12.85902441005 4.3483604318425 4.7803724012776 9.7664919788723 11.963485513483 11.265149193608 10.024737448481 9.451718896333 10.771261083231 9.9557404675402 5.8265660767619 8.3849125082254 5.9440465407481 8.5169586123847 4.8266913393309 5.6735859215171 5.6075405217759 6.0163746972532 7.3782906805665 6.0703489255577 9.2724823697822 6.2900150621371 4.7720676150356 7.4128241695631 8.330844193929 9.4448295215771 6.7468547464753 5.7790633963738 5.0025145171667 6.9694865106859 10.476828432486 9.3683166297106 6.3936494112896 6.3253434968906 5.5385287515517 7.1166046095973 8.4821070423368 6.8799024153242 12.93277128584 10.620655135466 5.5557156785966 4.9023645862319 5.9877745220452 8.6590273448231 8.1011391664178 10.200819745827 13.900501048978 8.0140415230976 10.071298653256 6.3168220115777 15.765525521935 8.0899630475823 7.1827091688979 5.0552082112174 9.0659268886924 7.1941119794784 8.7577778774621 6.3530887099954 8.938477840488 8.0642162507324 8.5526447535942 10.937565730772 11.465737988409 9.5189191733536 6.4442541898977 5.4975084885803 11.726142508814 5.4296599801179 9.548167354466 10.528695207297 6.0416022865646 12.255839220624 7.0793993236064 6.8179923502543 7.1081927285193 8.9279290094146 6.2219258816765 6.027498584244 6.8514123011797 5.0673853854635 6.4382412148871 5.907228219597 12.948028420769 8.8035753625907 5.984976370666 6.6969664716961 6.6343104398924 5.769041574959 6.5323921651667 7.8990725877254 6.6905789964934 6.96067191635 11.323785411965 9.8176609039462 7.8624967373107 8.7403916543824 9.5934662714019 5.035567033432 7.1116024376988 4.5169740744195 6.9033171409803 4.694232980302 7.12584011904 10.757468210701 9.1430000547904 4.854855966485 8.9900566714422 4.2027332505339 7.9210259352847 6.223265787932 6.8235142689644 9.1394391274009 11.61137340198 10.224658092577 6.918124322465 5.1126144625805 4.0316249161853 5.8055250435297 9.5729483853126 7.9005973941409 7.9564782489235 7.3812022508968 9.2593472423306 7.9700186042396 6.502483574063 6.2077772494446 4.295948220807 5.5651711662926 5.6325953954032 4.8037728549394 4.6346213886859 4.9016391957144 8.715769199267 6.2517036183378 4.3731086246385 3.9731518711868 10.537026734284 7.3216850143213 6.1905987030847 5.996934095483 5.1499969458805 5.8497720278615 4.8902632618693 4.9625388938336 12.02652316573 8.0628919949511 6.5510654790088 7.2108999956118 9.8947242744274 6.9679790312815 6.9844683956369 4.3002198971725 8.2168228110338 8.721285394 11.951015582359 5.8673275456436 5.20572744801 4.3684993496288 3.7706952317182 5.8122883916353 7.8651148818012 5.8305549177901 6.2434485483952 4.7787804464324 5.7653040193096 7.403176887957 9.575519024544 4.9046285428165 8.499374737644 9.4820659716566 3.948578318529 7.9715993614539 11.546104711314 9.0485100032582 4.911824267777 7.9203449705249 6.5281962671459 5.7938073552501 5.4765620595068 4.6615883271715 9.3833207626506 9.6706722379354 4.5348076058782 7.2061307670884 6.2557747880114 5.1404133302601 5.2644164508342 4.2255673546953 10.220455218985 8.4512615111767 8.0089756576536 6.1047982679476 8.5745779820071 7.6076554271342 7.8112608049231 5.9653351495105 8.3351066975199 9.5075313438068 8.5556880197829 4.5852049551137 3.7786210257256 6.1989696381877 5.4291804808236 6.8549704426996 8.7337935093737 4.7677690163823 8.3156862617874 3.6439647929202 5.4214130359997 3.5882864208381 4.0375045633246 7.8098413827472 4.5985165589037 6.445762980881 5.3148828631022 7.6161188105476 7.1078482546971 5.5661060852505 7.1119087696104 5.0692533528317 5.615987385019 5.3227051908221 5.2185849966813 7.2298771228049 5.2491234590364 6.3471641531502 9.6455098331289 4.9796826234316 4.4058446744819 6.0966625183732 5.8900445678605 11.722374157248 4.7070098079575 8.5039277637973 6.2456419544141 8.4550596273999 9.5712723838164 5.1780430313068 3.7015474744744 7.1480868568159 6.2738830811817 5.8968775060801 6.0641052984727 10.323243566972 6.9679801969633 4.8305788760284 6.2233058800083 10.430546410512 7.1732903394385 7.918528222473 6.841794396147 7.0231363291968 5.9016685810999 3.8002669059341 6.1671020058431 4.0168035449723 7.1388905522689 6.2461988490943 6.3661085523794 5.3866617997141 5.9668300799034 6.3853740041662 6.4719891865107 6.5107518782777 5.3184549226699 4.2386302877074 3.6522857512875 4.5085839614932 6.0635879983145 8.0009017214055 6.5760209711994 5.7632874138232 5.9073341428838 4.7832216422263 9.6754462485085 4.6345326933552 10.328860898012 6.9200794926552 3.7242064981154 8.6495109551093 8.115323966757 5.3950140806686 7.4937680573663 6.0943312067849 5.1569343763568 5.2939878253738 4.5853268730328 6.6312656865549 6.2137935960103 3.8739591879406 4.5639310640302 3.9148064158085 4.9690896960203 4.3443224047967 8.216728352173 4.6448948616859 7.5050914706163 4.2864764301823 4.4723798092727 4.4888425854379 6.4965314497824 3.9152054699633 4.0494036203897 6.0607442611527 4.3118633975913 3.688966044871 5.0140961994666 8.3167487289618 7.7581456803659 6.1836954313139 4.1297068881365 4.4665172175762 4.254715510934 7.504489237845 6.6041134654865 7.3458303460587 6.2156949429008 8.7344234337717 8.4722956790966 4.9735850794718 8.3687438204351 5.1754177467952 8.2059951059912 5.4791117158172 7.5912663664582 8.6281805976151 6.4487472309492 7.6054622889894 7.2015062754058 7.5284618193702 8.113739995786 8.3070362918568 6.8214941592892 7.681089550806 3.7919874946368 4.9229941735424 7.8899049967352 4.3535999162607 8.6420820529898 6.0752024208674 5.4171006972445 5.4663451854737 5.4976006183967 4.7673690131994 4.4848495041921 4.4741437606645 4.0584063841482 4.556972515971 9.9134375636655 6.4198045793998 9.1328517181858 9.6459855731251 4.4685484538083 3.6891006777608 4.6551212177283 4.797655404896 5.3844753391947 4.8248767875547 5.1618323877527 4.7087812939291 5.4764855631165 5.7003369796946 5.740372284798 5.5454668960624 5.7112870041273 6.1620556583679 5.2503767693336 4.9628524424968 7.374499096187 7.2264409998658 4.0888736939576 3.4065540539807 3.5787450303755 4.0615339205707 3.7549223488664 5.6280224602448 5.0459278042139 5.9989663015567 5.6925148123568 17.856985557431 14.44190603142 3.7900003727005 4.121733281842 6.5211641505388 4.688391987074 3.4164500863331 3.6771486815416 4.6087401688174 6.3273479891545 10.447174897644 5.6598593974303 6.8265514607101 4.4611955648729 4.6298433253667 9.2942614587254 4.4558926501292 5.945376059727 7.5784018746365 4.2501089805768 3.8176382186969 6.6126532142099 7.3742040733298 4.5480248573191 4.0541447954982 4.0881208230182 5.4919193981069 3.956828984162 4.4172435920984 3.5388961445651 3.558892499898 3.8574618566971 7.9877101637605 4.1727236898187 4.7230712303299 4.2363975094463 4.7891847129832 3.9490113702292 4.7494118559337 8.5488898378516 3.524342997231 5.6311674120641 3.4852708151432 3.7352776488081 4.4073891359673 3.7875924950896 3.674802078597 3.6540788554643 4.0622634661205 3.7851419625292 4.0372483618064 3.7618699726742 6.846599376106 4.4517532464918 3.6216836647623 3.9462108245467 4.3307387696621 4.3468497201791 6.1088278998794 6.2879039457358 6.2366059497894 6.3088145747454 5.5487619912928 5.9142424210623 5.2169547330008 5.4715710970183 6.0340655198984 5.8121224011128 5.0298467957102 5.2783414516462 5.3791138772688 6.0775720158221 5.6741271124868 3.4482667527274 4.2584505980961 5.250524468064 4.2976757971245 4.0407479941656 3.7554431993413 3.8452018129794 3.3943705733906 4.0663245298482 3.7143259375865 3.9322087782271 4.4658758089169 10.60204501933 4.0365113309254 4.5139396594604 4.4421333954237 10.825079347272 6.6242638639063 3.6668298188377 3.7603241960509 3.4810474756073 4.1445918883661 4.2673891559906 19.794936928603 3.6056607851183 3.8184300182511 3.984445200496 3.496729303825 4.4902413886592 5.0647462807712 4.6677786398346 4.5002724262281 3.5200802526784 4.5398726758664 3.9308625523069 3.4857675373572 4.0564168402108 3.5074991972575 3.5960845490327 4.0911752202064 4.2850465124034 3.4666838347221 3.6015424794967 3.2722399357026 3.4115241395862 3.2731940851848 3.4432817638836 3.5888511408144 4.0861577501269 4.1157742689277 4.7507097792275 4.9321007289319 3.6375593923439 3.5898696030809 3.5128944689268 3.9475019657139 3.6723250069336 3.5672489444574 3.536727590429 3.5325628015791 3.5255540783832 3.5375484259582 3.3819025311758 4.05011447836 3.3745773152718 3.5787030193404 3.9258071102771 3.9087319458544 3.4994013787333 3.4687778359088 3.5496355211383 3.6476393682352 3.302946360565 3.2660932862564 3.4569586534856 3.4262102619638 3.3184993340212 3.49734632675 3.7333612272678 3.5820518773119 3.712178381092 3.5038787099166 3.9605433186374 3.472413291749 3.6487553621682 3.2920132654081 3.3977123727027 3.5071424241658 3.3928024549842 3.5385469796261 3.4371507358468 3.6314034198051 4.1516268482028 3.5116977881927 3.821600347577 3.4590593608347 3.4782657474727 3.6634814271957 4.0687214218826 3.6310193547701 3.5832477174978 3.4542043067481 4.1859254530612 3.7030701751691 4.3245955133739 3.8969710435543 3.583192115889 3.7530777958825 3.7064048083309 3.388536238485 3.6959380950172 3.8539446575323 3.6911090859639 3.802837793655 3.7432681378911 3.5808082870601 4.0867267146962 3.4874696602705 3.8630153905525 4.1873239556731 4.1925161357812 3.9639156238884 3.6908935900164 4.0417232044759 3.4838567820207 3.787199419248 3.5309128121872 3.9233517267104 3.8575654574986 4.0448729103745 4.2019560987388 3.8033168173114 4.2112127737232 3.8269716660855 3.8838000269418 3.8430625070209 3.9385319171216 3.967373288765 4.0563456944879 4.2513394233625 3.6951245747004 3.775053486548 3.5867651212298 3.6606455555585 3.8022168555775 4.2525672003944 4.1113604258199 4.009828716083 3.6647033570408 3.9069885247497 4.1673961759714 4.0119863568419 4.280323247356 4.0589894403295 3.756324912518 3.8690154132559 3.6840802829179 3.855798711342 4.082423425012 3.5884557861103 3.9672386436197 3.9627796048752 3.7235496111004 3.846129987311 3.7476970794863 3.9827094976272 4.028663389826 4.0524166037665 3.9393371823805 4.2351514960419 4.2211683281508 4.1310884193918 4.1284325122386 4.0609011865052 4.1830779260465 4.229708038726 4.1735758413284 4.1348947844668 4.0418974843491 3.734664101431 4.2669606987513 4.2100318970433 4.0206079293696 4.0867606502291 4.2015217112569 4.1490442860878 3.9255588405038 4.0366883791418 4.2316559416816 4.3021786160293 4.3403989375814 4.3782361024341 4.2513643282787 4.404557460691 4.3995871320018 
SCALARS 20.00_0.19 double 1
LOOKUP_TABLE default