# vtk DataFile Version 3.0
d-2__ created by libgimli-v1.0.12
ASCII
DATASET UNSTRUCTURED_GRID
POINTS 1303 double
5.625	0	0
5.511811217919	-0.146388704457	0
5.676386535709	-0.13519637448	0
0.25	0	0
0.175228502521	-0.179050409113	0
0.326009290428	-0.144330725415	0
0.375	0	0
0.990207725992	-0.114957291708	0
0.841075314552	-0.137634199948	0
0.926498288371	-0.349340723189	0
-0.001071200562	-0.386156929004	0
-0.003317641763	-0.130454088023	0
-0.192720422374	-0.216308252768	0
1.25	0	0
1.175215748534	-0.200562384647	0
1.341115762259	-0.128605193971	0
1.375	0	0
2.25	0	0
2.168494514827	-0.19848886597	0
2.338304607341	-0.128945294536	0
2.375	0	0
1.911268305082	-0.334701951691	0
1.986191885908	-0.110806668109	0
1.838390258011	-0.128853462534	0
1.75	0	0
1.670105949089	-0.197137117999	0
2.986685504441	-0.10889534818	0
2.838723720416	-0.127406828384	0
2.912854264006	-0.329775839393	0
0.75	0	0
0.664572693147	-0.222613872306	0
3.25	0	0
3.168798596028	-0.193682232199	0
3.337828500197	-0.125181208794	0
2.875	0	0
2.75	0	0
4.25	0	0
4.161099470995	-0.193412132741	0
4.332718836325	-0.127723897736	0
3.83511440706	-0.12403687807	0
3.875	0	0
3.75	0	0
3.901908238995	-0.321557035295	0
3.983050435256	-0.106770030737	0
3.665527023987	-0.190866765849	0
5.25	0	0
5.164693411436	-0.21656556845	0
5.338419985376	-0.147288917438	0
4.834321952324	-0.135810575609	0
4.875	0	0
4.75	0	0
6.25	0	0
6.178399669611	-0.137425451145	0
6.356205370496	-0.193853696818	0
5.817814980918	-0.161175429964	0
5.875	0	0
5.75	0	0
6.611939839541	-0.314381537706	0
6.522886280605	-0.104721203126	0
6.75	0	0
6.669178832877	-0.119404962711	0
6.836073690852	-0.177498311423	0
5.39059629209	-0.37339102075	0
4.660917359886	-0.204007052252	0
4.902096977384	-0.356327271651	0
14.897042426984	-0.319128540459	0
14.98121339776	-0.105010975498	0
14.832720105416	-0.123004000492	0
2.669265824618	-0.196872625129	0
7.656019919505	-0.144451020927	0
7.75	0	0
7.625	0	0
6.625	0	0
8.75	0	0
8.672937461928	-0.164309120831	0
8.834289374889	-0.109279841483	0
8.206809119751	-0.294811800109	0
8.187056112549	-0.110869448227	0
8.024316200302	-0.129362764133	0
7.157390904024	-0.111206354394	0
7.25	0	0
7.125	0	0
8.25	0	0
8.125	0	0
9.75	0	0
9.651145885459	-0.185384966231	0
9.827054067621	-0.122428024454	0
9.381816956327	-0.305807769915	0
9.476753337472	-0.101567493772	0
9.327490061855	-0.116748040282	0
10.75	0	0
10.655660803951	-0.196164841752	0
10.830485405183	-0.127989131147	0
10.386748323888	-0.329675548046	0
10.478464938155	-0.108955040137	0
10.328560245085	-0.126395562242	0
9.25	0	0
9.375	0	0
10.25	0	0
10.15270392044	-0.192469144253	0
8.328856990144	-0.128933011689	0
8.375	0	0
9.153857570119	-0.175508527296	0
11.75	0	0
11.660624577581	-0.201812344528	0
11.833823570609	-0.131890823957	0
11.395399221028	-0.337817920558	0
11.481219500696	-0.111845889235	0
11.331881500183	-0.129806070652	0
12.75	0	0
12.669299873111	-0.199190799603	0
12.839534650452	-0.128328673855	0
12.40897914742	-0.340185307353	0
12.485654611126	-0.112072117633	0
12.336727606385	-0.131188239877	0
11.875	0	0
12.25	0	0
12.164627546098	-0.202605127067	0
13.75	0	0
13.669268468008	-0.186168180444	0
13.837322273199	-0.120178339978	0
13.416957459915	-0.319650485848	0
13.487510959619	-0.105281058988	0
13.34010202956	-0.123833443479	0
14.75	0	0
14.66080663422	-0.189613659871	0
14.399926333663	-0.319306441484	0
14.4823067449	-0.105599641009	0
14.334114343934	-0.12250571155	0
14.875	0	0
15.25	0	0
15.158227025815	-0.185762723401	0
15.330441202311	-0.11956675178	0
13.875	0	0
14.25	0	0
14.163960939829	-0.186365139356	0
12.875	0	0
13.25	0	0
13.171786689458	-0.193064330135	0
10.875	0	0
11.25	0	0
11.158129238503	-0.198418008741	0
7.31587636932	-0.171642077952	0
15.3902841013	-0.308450173235	0
15.478958243586	-0.102394874489	0
-0.125	0	0
0.125	0	0
0	0	0
-1	0	0
-0.706889652808	-0.331752981492	0
-0.5	0	0
1.125	0	0
1	0	0
1.625	0	0
2.125	0	0
2	0	0
1.5	0	0
1.488007132967	-0.109900770852	0
0.5	0	0
0.474245721096	-0.130043839003	0
0.625	0	0
3.125	0	0
3	0	0
3.625	0	0
4.125	0	0
4	0	0
3.5	0	0
3.485533411273	-0.107014956798	0
5.67736414417	-0.368119689468	0
5.125	0	0
5	0	0
4.98353533542	-0.118243061674	0
6.125	0	0
6	0	0
6.009467825362	-0.139471566496	0
6.5	0	0
4.625	0	0
5.5	0	0
4.5	0	0
4.481603306259	-0.111052305129	0
2.5	0	0
2.486482293556	-0.110456056597	0
2.625	0	0
7.828740664136	-0.157959666613	0
7.5	0	0
7.497789303332	-0.098817221798	0
8.625	0	0
8.5	0	0
8.493725508365	-0.094448160765	0
8	0	0
10.625	0	0
9.625	0	0
9.5	0	0
9.125	0	0
10.5	0	0
10	0	0
9.976983002093	-0.106037154081	0
10.125	0	0
9	0	0
8.980258705317	-0.095443922293	0
12.625	0	0
11.625	0	0
11.5	0	0
13.625	0	0
12.5	0	0
12	0	0
11.983083448534	-0.113269018621	0
12.125	0	0
15.125	0	0
13.5	0	0
13.125	0	0
14.625	0	0
14.5	0	0
15	0	0
11.125	0	0
14	0	0
13.984735949845	-0.103165953766	0
14.125	0	0
13	0	0
12.987740386932	-0.109238757727	0
11	0	0
10.980033547654	-0.110118532971	0
7	0	0
7.012790729926	-0.096165366155	0
15.625	0	0
15.653391866104	-0.184257106926	0
15.75	0	0
16.25	0	0
16.151956269841	-0.190746813766	0
16.328162175541	-0.125534698515	0
15.827345422636	-0.12109528269	0
15.881623705918	-0.315197408181	0
15.9768075603	-0.104841845177	0
17.25	0	0
17.155473725888	-0.187015736188	0
17.328334720487	-0.12053442359	0
17.375	0	0
16.97978281674	-0.105790715925	0
16.830585534618	-0.124270763258	0
16.892220832712	-0.321708894118	0
16.75	0	0
16.655725821363	-0.19281499559	0
18.25	0	0
18.144056513649	-0.199584109463	0
18.322695877645	-0.133173012767	0
18.375	0	0
19.25	0	0
19.156955168382	-0.212194778097	0
19.332395147696	-0.137501625504	0
19.375	0	0
18.978107771567	-0.118463258117	0
18.827251646435	-0.137822523984	0
18.884674261801	-0.359498065923	0
18.75	0	0
18.648603260315	-0.210400354993	0
17.973004229039	-0.108213471414	0
17.823362138939	-0.124125311933	0
17.87020700187	-0.324156104502	0
17.75	0	0
17.64837652944	-0.187413016584	0
20.25	0	0
20.167288289523	-0.206556633625	0
20.33799343326	-0.133667464393	0
20.375	0	0
21.25	0	0
21.172020853715	-0.201327641466	0
21.340729826518	-0.130206344264	0
20.875	0	0
20.75	0	0
20.839555732676	-0.132066213667	0
20.987710400762	-0.112937783384	0
20.915843633601	-0.342386775443	0
20.669904108595	-0.203936882105	0
22.25	0	0
22.168893714495	-0.194483818359	0
22.337089427477	-0.126591453251	0
21.875	0	0
21.75	0	0
21.840184239699	-0.127666317168	0
23.25	0	0
23.162361450448	-0.215073727418	0
23.335945395372	-0.148199257458	0
22.875	0	0
22.75	0	0
22.83504078106	-0.133126573368	0
27.412614995451	-0.337768305098	0
27.406417478875	-0.760610856776	0
27.663031754041	-0.476449210851	0
23.674319496044	-0.139602731619	0
23.75	0	0
23.625	0	0
22.902876337082	-0.348446434986	0
22.664415839639	-0.19979598046	0
21.987454968006	-0.109075483352	0
21.916658702332	-0.330379709848	0
21.67241042914	-0.19774510361	0
19.984830323221	-0.115851903278	0
19.835879034474	-0.135573032779	0
19.906686139011	-0.351521653308	0
19.75	0	0
19.663378765328	-0.209646647928	0
24.75	0	0
24.672305039303	-0.121865624882	0
24.84054616259	-0.178479133746	0
24.25	0	0
24.125	0	0
24.179559510218	-0.145425217914	0
25.656694723316	-0.141492417978	0
25.75	0	0
25.625	0	0
25.25	0	0
25.125	0	0
25.159224348757	-0.109007087058	0
22.647257188685	-0.476376729768	0
22.872248033711	-0.780455516934	0
25.317652966423	-0.167196322239	0
31.908525182248	-0.237434634112	0
32.248547795208	-0.367887731521	0
32.025	0	0
26.398062594932	-0.327144710524	0
26.335089901602	-0.124890632532	0
26.169730315141	-0.188549564961	0
26.75	0	0
26.662500836065	-0.197477656933	0
26.835401004001	-0.129534360312	0
26.375	0	0
26.25	0	0
27.486869476066	-0.111474770432	0
27.338367230812	-0.130187170762	0
23.816158307302	-0.168335740772	0
23.875	0	0
24.625	0	0
27.75	0	0
27.67023663024	-0.198727549038	0
27.839431305592	-0.128541986375	0
27.375	0	0
27.25	0	0
28.75	0	0
28.666013303123	-0.192953151514	0
28.835335299513	-0.125393524551	0
28.875	0	0
28.41074998604	-0.32692743598	0
28.485854239984	-0.108071323096	0
28.338261561589	-0.126341817439	0
28.25	0	0
28.169650699531	-0.195402875109	0
29.75	0	0
29.656991685033	-0.201213204108	0
29.830700495316	-0.13323291855	0
29.875	0	0
30.75	0	0
30.665605116896	-0.213760177502	0
30.837855425721	-0.139272404211	0
30.875	0	0
30.987248292653	-0.119871959545	0
30.911614165903	-0.362389547989	0
31.25	0	0
31.174363802618	-0.217041176186	0
31.346460135447	-0.143418487957	0
30.400599561582	-0.360265197586	0
30.483280501431	-0.118794220148	0
30.3336351656	-0.137924489201	0
30.25	0	0
30.159375273254	-0.21004086356	0
29.392934647931	-0.331414044449	0
29.48031118177	-0.110263057575	0
29.331777210358	-0.127344913482	0
29.25	0	0
29.160548153072	-0.194064979946	0
27.167334579456	-0.200440763045	0
24.359650796728	-0.20304719459	0
-0.25	0	0
-0.404335947278	-0.221464959739	0
16.125	0	0
16	0	0
17.125	0	0
17	0	0
16.5	0	0
16.478267427857	-0.108008273171	0
16.625	0	0
18.125	0	0
18	0	0
19.125	0	0
19	0	0
18.5	0	0
18.473681471998	-0.115768873419	0
18.625	0	0
17.5	0	0
17.47687846862	-0.103462148239	0
17.625	0	0
20.125	0	0
20	0	0
21.125	0	0
21	0	0
20.5	0	0
20.486446843971	-0.114298370976	0
20.625	0	0
22.125	0	0
22	0	0
23.125	0	0
23	0	0
22.983281399654	-0.116385827149	0
23.5	0	0
23.509214189908	-0.149359691049	0
22.625	0	0
22.5	0	0
22.48467632496	-0.1093719097	0
21.5	0	0
21.488472844532	-0.111208801785	0
21.625	0	0
19.5	0	0
19.482219828947	-0.117572233456	0
19.625	0	0
24.5	0	0
24.525433875838	-0.108080714825	0
25.824234283709	-0.149177038136	0
25.5	0	0
25.498573523516	-0.096586408813	0
25	0	0
25.014769107289	-0.095147895568	0
21.919931345447	-0.741308582321	0
22.160361550711	-0.463896476278	0
26.625	0	0
26.5	0	0
26.482631880244	-0.108512805864	0
27.625	0	0
27.5	0	0
27	0	0
26.984612185119	-0.111680714924	0
27.125	0	0
26.125	0	0
26	0	0
25.990349817319	-0.10847866492	0
28.125	0	0
28.625	0	0
28.5	0	0
30.625	0	0
29.625	0	0
29.5	0	0
29	0	0
28.983089608831	-0.107750428826	0
29.125	0	0
30.125	0	0
30.5	0	0
31.63125	0	0
31.5	0	0
31.494696987447	-0.123712578064	0
23.671261205816	-0.380102168636	0
31	0	0
31.125	0	0
30	0	0
29.980228243528	-0.115525062547	0
28	0	0
[...]
CELL_DATA 2263
SCALARS 1000.00_3.59 double 1
LOOKUP_TABLE default
7.2061490584778 6.4009900912331 6.5347832976066 7.6238153146766 5.8753195958456 7.5593312312907 7.6440624060537 8.2929799257764 8.2463796863202 8.3492694537273 8.258994204714 7.714910992798 7.5771311798427 8.0679176131009 7.5625574569434 9.4193837000539 6.4050432362042 6.8811418765327 6.3329684251724 8.2289547599092 7.8639067396873 7.5339094162669 6.8710569849884 6.8147804229711 6.269730337743 8.0078663061189 6.9823219308003 7.8014995275621 7.8104887603337 8.1657798939196 7.6342247377877 8.373524575359 6.1854230913536 8.4960122340217 9.2669791025734 9.6379688982114 9.3729144215711 8.9132543769496 8.4168922284434 10.314857820624 8.5376207977686 8.6084417378659 7.9123374465017 9.4363492748351 8.7250314366566 8.2568983284778 8.5233713771683 7.3264971402327 9.3464707252748 8.161159571516 11.063951311305 10.503591835269 8.5724427320955 8.1025635018035 8.2664697149053 7.9395412848875 8.4519227714772 10.614834583786 7.8792791761314 7.4311131273391 7.7262570807247 10.429923318772 8.4747029663053 9.8310713001669 7.9435129131433 5.8132134024937 6.0040211653678 5.4530607412752 7.4576867518065 7.5715283999398 8.2118223956929 8.4936961238019 8.0849055959229 8.3811015838657 7.0177065264456 6.2563738553207 8.3553526227219 8.2415055116737 6.3011575231572 7.9306025664846 6.787655572622 9.186732870353 7.1888255897648 8.1558099099311 6.9417208721466 7.5905955847583 6.4607455543191 7.8296566274106 7.5023955029037 7.3447724892808 8.4906279537418 8.217119550137 8.0906723704906 7.4058359352348 8.4081045151062 8.9593838157701 9.3946891588464 9.1411458750899 9.2463079323948 8.6294342694367 10.246540034175 8.7530204881202 8.9757541261587 9.4513379881783 8.1989710971461 7.7997197444671 8.9895701629193 8.9455915811554 7.2753790591033 8.6722604468122 10.422977376546 8.2473619232205 9.949091443867 11.290121304383 8.7770837169066 9.52905317416 7.485828194181 8.4210855364688 8.6951541214267 8.6642617424358 9.0148048522991 7.9848727650429 7.4945559175998 8.2937536209112 9.4794060428693 8.4402091334753 8.4746782787663 7.7561229117231 8.4045357021282 7.7417872718397 8.1002988188554 7.5772341766208 7.4924597192795 10.535589187592 11.943128699569 7.2495382610216 7.2289646880004 8.2188296584461 8.3261657285748 8.5066364819397 8.6230361544531 7.8414764675953 8.2600920978251 9.6443437360832 9.6889849523433 6.9594240330801 9.7562613440225 8.6756936132771 9.983268394571 8.6271740797969 8.5691252467727 7.9286678622223 9.0564555220925 6.1207077592402 7.9803115330164 8.6718251143843 9.0260873674184 8.4848118181181 8.3734898492517 8.5055579277174 7.8500051769454 8.5602405680341 7.3132818090877 9.0492054204057 7.9563912698298 7.2998461164716 7.9782956156296 6.3195201914052 7.1604634244102 6.5463488927958 7.0942224031928 6.3854900371242 7.7501601082911 8.4620182620512 7.2095449507332 8.2163450502623 6.0142601610326 8.2777800672916 8.295141014008 8.5853840558028 8.7499176419726 8.271290358076 8.1972179059 7.1777627006414 7.2212863901569 7.2129363475621 6.8954355888223 7.0491538513017 7.0151143785032 8.1393044915625 8.1012831577775 5.9899518637791 7.2797958424729 5.6335732165111 7.8693775955149 7.570819896024 9.1325481680246 10.223328312084 8.410911162279 11.885578952904 7.7468926715385 8.1387897745725 8.4691602351675 7.707767100365 7.4135577833 8.3634775780835 7.7183067652289 8.4847712372407 9.1891178316372 7.0317367942255 7.8811651948625 10.55255780478 9.6396574769337 8.6139213877805 8.7174352751671 7.8574518575708 8.5024399528679 8.1985831761761 9.1012540712072 9.0801085550597 8.0082616109738 7.7031719905211 10.491024553381 8.0832706494867 8.350787932987 7.7494601276617 8.0766395559478 8.9205841164066 8.8864813535471 8.2780755254487 7.2123433690041 6.7303343317605 7.0246240655464 8.007928425119 7.1268293880069 6.1936711560032 7.3988607662935 8.0338035676662 8.7174558860373 8.6035277834235 7.1388774758112 8.4994843711033 8.3116523245634 8.4781259341417 7.0607739527537 7.1183715785231 5.9887538426419 6.8989564882846 7.8066684744385 7.2054914050829 8.148392681896 7.444169763212 6.981424684058 8.6414408253855 8.3225008675667 7.530650296618 8.2011350542209 6.8456793219564 8.2296263182732 6.1182459501571 6.855817611424 6.8423768592028 7.4891275471648 7.9402998690997 8.454006350729 8.1740618382605 8.1670475584512 8.449143545886 7.1770279360661 7.8066773571385 8.3254202914789 7.3070206862068 8.5274664307307 9.2988014039227 6.4779284524309 7.0914521419728 8.1775498321188 8.0042351422888 7.6064966277968 6.8886144200894 6.9163344613703 7.4651598670999 7.6340079035492 7.1870958595814 8.0500574363942 8.1039355531365 7.9425740363741 7.7944978441934 8.9910663209227 8.9113136750642 8.5818491669243 8.8226271566131 9.3743566047624 8.7892896362623 8.7521181921634 9.8822989109738 10.102646691424 7.9380392617765 8.7212328461111 9.0536892486597 8.5450383911546 8.6216603635742 8.7180796811495 7.5737807018499 7.6606946124572 10.526696618618 9.7245710347755 10.009848756265 9.9945173807611 8.4867437984815 8.1101801656487 8.7980514108144 8.1198108895361 8.4622258030446 8.0730558127209 7.4971796249321 8.7630872530773 9.0418666445495 8.4597907762791 9.3356034462918 9.711875032852 5.5618174525387 8.2279454587329 8.3563504279742 7.6552425743707 8.9127701366032 8.2842865721567 7.8748051550606 11.038015940582 10.774902881854 7.5486195489818 7.4081794779976 8.22456914017 8.4173119407487 7.9359045527937 9.0098513065223 8.5259248355214 7.8403826964721 9.494444731911 10.048974409104 7.3651755943557 7.3541831948787 10.521975556642 8.72593163619 8.6397806299795 8.9430934175897 8.2275883045142 8.1016501381935 7.8017504477014 7.5953710909868 9.0719668573997 8.8792721255229 7.9429501004546 8.7998361078517 7.9332401219612 8.5536445078921 9.0113104615052 8.6896426690146 8.252302278192 8.4239781411641 8.008719657969 8.5155052177989 6.9057643032509 6.280919405624 7.6946034725334 7.0246355900027 7.550521852756 8.6772619422735 8.4216407599033 8.3591490444369 8.6049620600829 8.8423440329658 8.492945113308 7.8113581572713 7.1243114899046 7.2768403401106 7.1141557199205 6.8203398723501 7.1998974534681 7.1174287719592 8.2283750741851 8.2734786635234 6.0959634172418 6.5022355477366 7.7573315714624 7.7434244861997 6.5836434005074 5.7141740553452 6.7365299112628 5.9176776695553 6.8357719861838 7.4335608599901 7.7472233201981 8.0195052598701 8.3088262606439 7.9311115067656 7.5586882549241 7.8622580734742 6.8615508541364 6.6349720688426 7.2912676014194 9.6928043368476 7.3163086547125 8.2696867671506 7.8463444064587 7.2916008363807 7.5970099571364 7.6657903180469 8.0215562813838 6.5640868988888 7.9833832510159 8.4971020575916 7.943033994651 5.8285852057442 7.5236711657073 8.8724769754959 8.3557759828947 8.1589820064408 8.8424742168589 8.3887850887965 9.1607834834911 9.0058459052712 8.4385688842173 8.5650291700488 7.8587228467031 8.7588933381534 8.0120623051191 8.062594456088 8.3606728317353 8.5293143114242 9.2329405470324 8.6184933889018 8.35165148681 7.4777989907926 11.161806316897 8.9652722458265 8.529286979768 8.4771391980019 7.9057024135315 8.2732051124058 7.7764849475599 8.3148955512034 8.47251781371 8.5315683711165 9.2153070556439 9.9207265127998 8.1895348300579 7.6122023993885 9.1051929968819 9.8693865745326 6.5209158313372 8.5903443374441 7.7894705627 7.8872406130432 7.8132634607981 9.5150153189015 12.118795143307 7.0214323805846 7.8188701566541 8.5864297586472 8.1234315328978 7.7210603629407 8.9497061360271 8.6110915950226 7.5348269841158 7.1885548007678 9.2475457144284 7.9604051336424 7.9009150872058 6.967038997618 7.2086262989434 8.6941543781259 8.9668848663272 9.6970453796964 7.9725906444639 7.9152868440626 8.5241002569562 7.5998285071575 8.6917268581123 8.4778883126169 8.4640978696453 8.7058106584269 7.8347223999449 7.2509318533135 8.2527902878005 8.3182466494129 8.351080432967 8.8498786116674 7.2889524823754 6.4351772270159 7.8547221356075 7.1022918429967 7.8230121583548 8.4607548451431 8.0857602284221 8.2251135779068 6.7461329828299 7.8613177101418 8.858229635041 7.6262069621553 6.8555592461947 8.2223085450128 8.0983289717597 6.9124658367081 7.0264586094115 6.8233859769102 7.0609199046961 6.4583107430601 8.168953757876 7.7343796390673 8.3857788183358 8.2469797073514 7.0786496677484 6.4338546942667 7.8858085093712 7.2847642086807 5.5370850210453 5.5128959391921 6.9204304905505 6.5287726161935 6.4223059690597 6.6628222648348 7.6907973487869 7.7847648768788 8.1780239371825 8.2177385296492 8.2406887416988 8.3720232949112 7.4652040173052 7.790619743733 7.5149893436931 7.636868335045 8.7597747425454 9.5194417493275 6.554205553223 6.652185318617 6.5520017750877 8.2125186280935 8.1981810131247 7.4030545708721 6.4393377482539 6.4184371281494 7.3497661258417 7.0028276078382 7.6017145271703 7.9717443622398 7.6451066254669 7.625334622278 9.1434583858757 8.7317837973515 8.5411348839195 8.4586407702342 7.1691424488632 9.447021794014 8.4836080550691 8.8914690712489 9.8256294355085 10.297747287033 8.1864754166126 8.3060021002081 8.4499529286523 8.5145763624586 8.2520911712887 8.2923832123337 7.4618849734963 7.579476700976 9.5869681781215 10.475246067123 9.9833904119491 10.404691162717 8.1582365820304 7.9748911316845 8.0052154616443 8.1429623022359 8.2258795481242 7.9353616076909 8.1302537176469 8.2649963740741 8.5207572409439 8.4011619190889 8.1639203472736 10.166275210116 8.0111962743369 8.4485939309997 8.0718755155912 8.2775230423013 7.8829295416941 7.6683685938667 10.723374466777 11.551525923262 7.0896605357064 7.2491478267095 8.1846457787016 8.41511180535 8.2292579474198 8.9825961685508 7.9800920643315 7.968877403561 9.4617032062199 9.7869547578277 7.0809162439296 7.1172247136482 9.037634050982 9.2700750712525 8.5255375756141 8.7855745248092 8.0947974763261 7.9972706684871 6.0059917053984 7.6588814850774 8.1202489365696 8.9788719260856 8.2263443128918 8.6682919670872 8.2051769412317 8.1924351268084 6.7931615177734 8.7870437453794 8.148836712207 8.6464463597431 6.9966079057482 8.0247538232956 6.944926181448 6.3650662026155 7.3803427574577 7.0637914378506 7.9154128302373 8.5194123286446 8.1706926112945 8.3232277714003 8.4556753746334 8.8471172472161 7.8572983463691 8.0055993195148 7.1523545133512 7.2586753999156 6.8800732261912 6.8201982849804 6.9934870101962 7.0666141958678 8.0448479290221 8.1546952162572 6.1488440657767 6.1863804638468 6.5869001811326 7.3495126931683 5.618011996803 8.0188903185326 7.3415782084542 8.0079673397625 7.9589158311379 6.7827085665479 7.5877867885757 7.8857908855454 6.8489791412566 6.802548613749 7.511315103629 8.2857582338307 7.6348872631826 6.5970006458314 7.1586738328112 6.4750078292022 8.8483702623509 8.5904083131938 8.0407020894082 8.9921379194116 7.6336244815012 9.9798789731112 6.9744607596822 8.947170008006 9.3202904071039 9.1770388112214 7.4467108247683 7.6362430485067 7.4174882713567 8.6406586433931 8.5658602764672 8.1775872552679 6.9284395002793 8.6748390154635 8.1950509236315 9.3589670109526 8.9482986741942 9.0084494252328 7.880265580252 7.8640218574044 6.9338209784736 6.9605850922688 7.3042358588024 7.6601117474578 7.3611389476711 9.2116944143369 7.1553370599085 8.1396534705128 8.4251816456755 8.3325801256161 7.5887119050803 7.3324587334392 7.6462381788282 7.5419652299354 8.0900450330593 8.735740766197 7.0682715165637 7.7031459456217 8.1054268794302 8.6622288707261 8.0213747156784 8.5862624806551 7.0299346599249 8.4383647508853 6.9106632572658 8.2395494246538 8.1109186104014 7.3416542956415 7.3900000691823 8.9583377833758 6.4319484898885 8.1968570855487 7.7654344080351 9.7588219057574 6.7348445400122 7.0271440208198 7.6433511207726 7.9046061457816 7.8306737718951 7.5249767545981 7.0256898311124 8.7288659599717 7.2632740919949 8.6228870621202 8.5966687188019 6.7684547272112 7.9269963134401 5.1041124318968 6.6378405172632 6.4842237604649 5.5797471105595 7.1980474681668 6.3286068050001 7.3535024423308 7.2462279435848 7.9733786407593 5.8278320864533 8.2894112630598 8.4146087825134 6.3429455728407 8.0274048532683 7.9723342760989 8.1070212082308 8.2226131204196 8.148791616367 7.6529742029445 6.0419757499024 8.1726349523225 7.8299163486342 7.3507566292878 7.0354667007217 7.6757037043702 6.8985851542106 7.1553105758989 6.6775374457094 6.7958725020466 6.4093847447788 6.3045639612415 6.6064176886058 6.9714217920274 7.2849559460989 7.7820615734005 7.1821823906417 8.2842204849824 6.4043154501947 6.968461163219 5.44261936227 5.7435441128415 6.4811171044935 6.0110015429731 6.0021972595512 7.1908124537015 5.728048721802 6.134915171862 6.5663549171924 6.8415213946704 5.8706184028909 6.472741719834 6.1750165344134 7.9474923099015 5.9739015920768 7.5077629278415 7.5910479612356 7.0033802136298 7.0292972980421 5.9097838081035 6.9261331081604 6.4316592822793 8.5797832680146 6.5091082058425 6.3134250614819 6.963954521352 7.1413287744621 8.2068465325963 6.6267611939754 6.7571487212112 9.3374492691564 5.2036136520844 7.9504703371526 6.3177888218586 7.5115030707476 7.0179360591488 6.8855373716158 7.1188203157747 7.3211444678565 6.2941837799131 7.6160584635548 6.8086009073134 6.2747367996147 7.9184863412671 7.6142940768788 8.3544305837894 7.8759213083708 8.7837121391457 7.0814837239315 8.7125128025181 7.2519567693034 8.2336451645917 7.3178973555 7.9440795280643 7.0001491862684 8.1317504152626 7.3901462504193 8.4944486883728 7.4233945483449 9.1684317040441 8.352128953607 7.8736239899874 7.7471424688036 6.5465576074312 7.7486248643128 8.447758670603 7.7603399726603 7.3869032138959 6.6041161396989 4.8667914859199 7.2850402099831 6.102411542548 7.1599674546417 6.7892954603685 7.6674582207644 6.91475508802 8.1105426419894 9.2707564269019 6.8060622295935 6.9941566740786 7.7695749500014 7.272505867401 7.779243427585 6.8605428888424 6.9225693747151 7.767853492407 7.087428326511 7.2869766716115 6.0983767581797 8.3939967094821 7.5032105328003 8.711517954276 6.937562720087 7.4919339681702 7.2652652394958 8.0098810129704 7.129485675062 6.7656951625825 7.9194504897544 7.5400189839765 6.421337868658 5.511154849343 7.1925519588565 8.0146526514088 7.6187848617624 6.5528434312652 6.8578262851436 6.8891526564089 8.7051250692898 7.9438244283147 5.018901547235 7.4104271123233 7.155654077143 5.3214405028896 6.4146074851207 7.7799356625991 5.7428923157062 6.0534065467067 7.2256970751879 6.9424536642165 6.4030840612012 6.8816527408896 6.6266304411328 7.5185961586849 6.7451363854781 7.7456692098353 7.2169043656389 6.761921437331 6.3526180364561 6.2054337349332 8.2631666047114 8.0788750274486 6.831449591688 6.4451011370665 6.121333501524 7.6499904895207 5.3137712159366 7.4630446653158 7.4410020329431 6.3297492541993 5.9376215994462 6.3785693926803 5.315087478401 5.1415147306556 7.9466313948058 6.0001238346676 8.2842308386264 6.4588392274401 6.0506952378162 6.164325496265 7.6587878299313 6.6005750803403 7.0946675797686 8.127109141646 6.869878759823 6.3033602851873 7.1730784116042 6.7776264976875 5.4133932898628 5.9410688649532 6.2962484012279 7.3542117565823 5.485723256634 7.3166912822907 7.3495101905716 6.7840831079243 7.5592472737934 8.4164587891853 7.1047613294669 5.4639350412071 6.9521910475156 7.2826173935576 4.9287905263307 7.9767451756881 6.4953744140078 6.4293452654473 8.0791129860759 5.5615354141065 7.7239276808014 5.2193908338236 7.2222419952254 5.9684100343216 7.0262568840729 5.4610911579727 6.9022693455838 5.264647998913 8.0489511543987 4.7639722910771 7.3210416324557 7.2863850164552 5.1315407159928 3.8394228942998 5.8707737171354 6.3726889985952 6.7031257615125 5.6709540823549 7.2650136270241 5.8614737398807 7.9565829783692 5.6354636390708 5.3700579514889 6.6949040447927 5.5591161512653 6.4506894427384 5.70468697794 6.0491339736791 6.1993900579138 5.6249429791762 7.536586596563 5.844763387479 6.8885765454225 7.7521928550181 6.5084885074541 5.5977102982519 6.6261202317556 4.6678676177249 7.0670483684993 7.5014482602981 6.9196903903812 7.4372744377934 6.6862054735539 4.6041320454118 7.5597544649685 5.5730630820792 7.172321776756 5.3719638893089 7.3635867369845 5.1350114670109 6.9364122346376 6.8846048939792 5.3476761977885 5.8916434366772 7.1227831208199 6.600962931637 5.9202972451081 6.6789985749305 5.8384272681378 6.3952883165404 5.6216517022099 5.9625257884387 7.165135202534 5.3867393441058 6.6213492120648 4.2694605068974 7.2924059043602 4.9523921600806 6.819379986232 7.3852679065162 7.488309105684 6.5541166279988 8.7908531104224 5.9238862141721 7.075803407581 6.3774284588026 5.7602859090622 4.9069183787889 6.4784788326519 4.9582569583541 4.7812843832084 5.6404032127253 5.1846707025253 5.402354553623 5.5239887618715 5.6478337120054 4.1095941312946 5.4281041427457 5.3214045263855 5.3708633931473 6.0109104990717 5.8600770402102 4.9341548875155 5.6371509509593 5.3230583576975 5.5176447876226 5.3397686430158 5.1279658845759 5.3989835955955 6.0100856812114 5.92242223218 6.9920591121119 6.1014789623598 5.2971762279301 5.4670137482944 5.2746150175922 5.8144551783016 5.3019129743585 6.57362458819 7.4327887557538 7.2711037323944 6.7911605484439 5.1387314035931 6.4690381389479 5.9410164721632 7.3785539104021 5.661475780269 5.0985116200248 7.0182697276042 5.7584205892404 4.9457030897012 5.903463803045 6.5152121833798 5.2609299952259 5.2826802561245 5.88199633805 5.239960057037 4.3888514974811 5.3119466486185 4.9413011501755 4.9259498296156 4.4087751164417 4.3423804907847 5.6629284969013 4.7082950327139 4.1274052167202 3.9330011824449 3.5958199536776 4.3181878513566 4.4691568398368 6.1166320090039 6.4726389625549 5.6903976903976 5.9401184867366 7.936087978706 4.9700976864614 5.6010029709417 5.5442910088812 6.8968698519366 7.5351801362913 5.1729893781081 5.3661111700675 5.9899248242562 7.2038106063726 5.6702877030194 5.425544230458 7.0167809611156 5.8510074436855 4.6822113213378 5.0625421880635 4.8563144826473 4.9169090293086 4.1822419188104 4.8482467182709 4.1855986850822 5.4766237514278 5.7037712447933 5.6267945244291 5.0306114732585 5.9472738004979 5.923910277719 5.5880771774396 4.9909765319849 5.0360555342752 4.8576069657976 5.8660955557266 4.9420767024153 3.7769844802584 6.2412092537142 5.6136508905491 4.9239528476836 4.6350456505964 4.9557634758178 4.3771464656041 4.3839644071706 5.3381747395184 5.9190111445181 6.1846505758665 4.3986216832861 3.9120718802292 4.670836797003 5.4143312482284 5.5492910088275 5.528298375383 5.7198048206496 4.9304181526729 5.2868858931236 4.6101794785358 4.4817142540527 4.157182193878 4.4380930366815 5.1680585590237 4.0502311102298 3.6943068213182 4.6526927441949 3.9767626844815 4.18241360174 4.9984883009338 4.1602668536325 4.6890051875046 5.2087083985775 5.7613904018646 5.5102955085794 4.8446178482323 5.5953233911018 6.0966391227443 5.0509037712614 3.6375307781543 5.7248474302532 5.7074664568275 5.3241438052095 4.3967544325696 5.4917351479347 5.3063845712713 5.2760824777798 5.6955399853383 5.0443828424985 4.3687311787318 5.053006595809 4.3448918299162 5.8625982635551 5.6968750345883 4.5062613608195 5.2845732405855 4.7402697416537 5.0732941095685 5.4237717835883 5.8726464082937 4.5266906461298 4.7157506609905 3.7850363540062 4.5572438384024 4.3212653003066 5.818433698988 4.87562723814 5.3226611211783 4.6183759608343 4.1609650902041 5.0741169567359 4.463341919714 5.0405928520917 4.047719036156 4.1201520797721 5.5725928042915 4.7108667340853 3.9437632314958 5.4082878794519 4.481409501777 5.21834752271 4.1609555229667 4.5799601320205 4.7299799125811 4.1431490437187 5.3505049306859 5.0028433759163 5.7828780822505 4.9690407769557 5.5447902050032 5.4371934462878 5.8374573760932 5.3157768842909 5.3362516944854 4.9035421668961 5.6326652543975 5.0793081050106 4.3817481636556 4.0984533894704 4.4043185563083 4.7839306184883 4.5267138311873 4.5704802139479 4.05207999145 5.1078532861351 5.370555906894 3.7206361980436 4.2647410218694 4.982499422288 4.1786846066002 5.2681787383082 4.490254921263 4.291570694511 3.7156726845941 4.6249448290113 3.7312973719151 3.8659031236406 4.4359157332277 4.1806963848286 4.5560988222053 5.1713088475336 4.5914442956274 3.8389817518904 3.9828576672572 4.0423604887232 5.1278494396797 5.4580331358468 4.706893306