# vtk DataFile Version 3.0
d-2__ created by libgimli-v1.1.0
ASCII
DATASET UNSTRUCTURED_GRID
POINTS 570 double
14.5	0	0
14.25	0	0
14.386963504964	-0.201738469428	0
22.399299936458	-0.310870122736	0
22.129824335287	-0.229914148082	0
22.126320781198	-0.518791771445	0
8.472303742627	-0.591754876635	0
8.780507935475	-0.76092407121	0
8.82173151259	-0.349253271447	0
18.663262297679	-0.667179415955	0
18.934786529245	-0.453308328646	0
18.636898038907	-0.29588182328	0
4.016904362632	-0.85330676142	0
4.076038737616	-0.331410355179	0
3.713721571226	-0.470767763626	0
1.89953779852	-0.269343012166	0
1.633800503821	-0.203067612233	0
1.644492760828	-0.441295523531	0
4.368408037607	-0.250833874131	0
4.337474161742	-0.544420985055	0
4.67745607622	-0.378433532554	0
1.406172533733	-0.772361039307	0
1.913288206557	-1.218576310882	0
1.90687689783	-0.651895683444	0
2.5	0	0
2.25	0	0
2.347047126858	-0.185539804102	0
1.374000926997	-0.300418771701	0
1.25	0	0
1.114902662369	-0.201591505098	0
1.067401015567	-0.470108640981	0
5.75	0	0
5.699780065382	-0.324747799653	0
5.924584257371	-0.172748359932	0
0.883560935405	-0.231136840652	0
1	0	0
9	0	0
9.117836368049	-0.253904480787	0
2.625577516194	-0.346770599322	0
17.859079774019	-0.943547525024	0
17.535029634209	-1.703182852412	0
18.338018094476	-1.366069799339	0
19.932263871771	-0.826489183604	0
19.881635677668	-0.346204516721	0
19.622287080959	-0.573770479943	0
1.5	0	0
1.75	0	0
23.25	0	0
23	0	0
23.109690227386	-0.220340974338	0
2.75	0	0
2.142562771237	-0.172460438312	0
2	0	0
23.332392704446	-0.202507275941	0
23.5	0	0
19	0	0
18.75	0	0
18.888143078348	-0.195773419804	0
2.90152418742	-0.185685383897	0
7.612175045312	-0.180627982114	0
7.527150943175	-0.401430797998	0
7.881917737402	-0.30462800112	0
25.630635194756	-0.512020961038	0
25.243766894324	-0.80097755811	0
25.758031115142	-0.952821630144	0
3	0	0
28.84859809239	-0.201276387394	0
29	0	0
28.75	0	0
4	0	0
3.835807353334	-0.199536243303	0
3.106904732949	-0.178783649348	0
29.25	0	0
29.092446172194	-0.305987136665	0
13.5	0	0
13.667851890428	-0.185102765244	0
13.75	0	0
3.75	0	0
14.407363653886	-0.441423674912	0
14.125469935998	-0.279652141152	0
4.25	0	0
5.061980176718	-0.407989246181	0
5.335512032876	-0.269401530321	0
5.113979852892	-0.173834924157	0
11.882046000841	-0.812345557852	0
12.478640631525	-1.146569360669	0
12.244190771573	-0.565936619511	0
3.633270844505	-0.195395238442	0
14	0	0
18.378272976509	-0.514977451159	0
5.5	0	0
9.619519097921	-1.16461851757	0
10.030576753886	-1.587265312651	0
9.961661342999	-1.070235523667	0
5.25	0	0
5	0	0
13.157975569138	-0.830425793913	0
13.83833027638	-1.238601004239	0
13.671302359608	-0.710707966059	0
11.325917093147	-0.8366783502	0
11.612143285947	-0.506264798476	0
6	0	0
7	0	0
6.83842404292	-0.188923754932	0
7.11236984822	-0.391746146843	0
6.631875629497	-0.169178192832	0
6.75	0	0
3.21002197083	-0.595267231049	0
3.445510026908	-0.608065324465	0
3.362318141622	-0.306501255187	0
6.120159502895	-0.164221934939	0
4.538525595924	-0.906226152762	0
13.233775457127	-1.737244787017	0
4.5	0	0
16.138065841822	-0.472802517973	0
16.126746690205	-0.221608117926	0
15.859319180798	-0.326402762318	0
26.080401003391	-0.227842452866	0
26.25	0	0
26	0	0
3.019224421113	-0.401469974918	0
8.234901607028	-0.35771789179	0
8.518285578354	-0.242327591839	0
8.328777073389	-0.153008859619	0
7.25	0	0
7.400656881666	-0.195280611572	0
7.5	0	0
5.385509485898	-0.709154879541	0
5.948697127931	-0.745234910621	0
8.75	0	0
8.5	0	0
8.25	0	0
2.214249105773	-0.404278959534	0
2.896561357202	-0.792481120253	0
9.25	0	0
4.920911116561	-0.192028847294	0
9.651670336652	-0.200847798694	0
9.849824537955	-0.19917205686	0
9.75	0	0
10.095049354068	-0.315754204277	0
10	0	0
3.25	0	0
6.738406513564	-0.710129601907	0
7.121614580011	-0.943026074581	0
11.345829942703	-0.314788260019	0
11.25	0	0
11.104427225455	-0.188863495516	0
6.052412255932	-0.372556729023	0
6.373371846535	-0.274163514827	0
10.25	0	0
10.380281579003	-0.241092027437	0
10.5	0	0
10.75	0	0
10.909079077441	-0.189427130481	0
11	0	0
6.25	0	0
6.5	0	0
4.75	0	0
3.5	0	0
10.672815698565	-0.318467932684	0
10.772487906066	-0.787092734739	0
11.020900486567	-0.439266778492	0
8	0	0
7.75	0	0
11.5	0	0
11.619450354736	-0.231443672836	0
11.75	0	0
8.139317726831	-0.163309591658	0
12.25	0	0
12.158949464947	-0.235415698299	0
12.412455385193	-0.275030800337	0
12.929165084344	-0.221336108042	0
12.686337592177	-0.258437422252	0
12.900449535554	-0.462768612232	0
12.5	0	0
9.405755833308	-0.325979504745	0
9.111697192308	-0.594170467817	0
9.457257345083	-0.753685223931	0
18.101369157139	-0.618560521812	0
18.336839281097	-0.861122419318	0
10.385948631267	-0.570640149046	0
9.5	0	0
13.411260455969	-0.342646276848	0
12.643108055516	-0.590179775368	0
13.137744715761	-0.195204172124	0
13	0	0
21.25	0	0
21.358341816502	-0.326561417551	0
21.5	0	0
13.816492716597	-0.40394453634	0
20.25	0	0
20.423452336785	-0.313445603959	0
20.5	0	0
17.789350393153	-0.390447709085	0
17.987794057246	-0.401472255242	0
17.881276545163	-0.206424156589	0
19.564465692234	-0.270867872644	0
19.290725118801	-0.49926248604	0
16.392319441256	-0.29915360323	0
19.443730892406	-0.923508713428	0
20.457987075478	-0.803203365193	0
20.167450719332	-0.505159975143	0
0.103762538371	-0.253013629949	0
0.267057015134	-0.483604909932	0
0.374713194419	-0.2320817565	0
13.25	0	0
17.415572543912	-0.230682214253	0
17.5	0	0
17.25	0	0
18.108153655084	-0.208141099276	0
18.25	0	0
18	0	0
15.75	0	0
15.544586046819	-0.246453491997	0
15.122708481244	-0.193620038745	0
15.25	0	0
15	0	0
19.75	0	0
24.149237782749	-0.319013340846	0
23.842766599446	-0.577371105011	0
24.183995039966	-0.73159476451	0
13.871646321742	-0.17394291424	0
23.862588150518	-0.245417872715	0
16.84024277193	-0.203626765466	0
16.704049384397	-0.435508179396	0
17.112673188265	-0.38804641709	0
24.75	0	0
24.832880292394	-0.290571430318	0
25	0	0
16.40158555625	-0.755912194683	0
16.850299990829	-0.757941865332	0
17.75	0	0
23.567455674596	-0.325197491724	0
16.25	0	0
16	0	0
22.645812614293	-0.197864648876	0
22.75	0	0
22.5	0	0
16.75	0	0
17	0	0
24	0	0
26.914424714815	-0.337869958787	0
26.621963281699	-0.624626679172	0
26.977877660759	-0.778408201088	0
26.622424322919	-0.264588309935	0
19.34462271879	-0.199329831305	0
19.25	0	0
19.118057075065	-0.225686869553	0
19.5	0	0
26.75	0	0
27	0	0
27.5	0	0
27.604422363523	-0.298869962794	0
27.75	0	0
17.650384190064	-0.227839036584	0
18.343198956448	-0.236734208617	0
18.5	0	0
24.25	0	0
20.143897114391	-0.233773711865	0
25.5	0	0
25.25	0	0
25.344389320279	-0.31693710653	0
21.059546193318	-0.24845941382	0
20	0	0
25.842927934822	-0.248287716678	0
25.75	0	0
25.613904645132	-0.216025146631	0
21	0	0
11.763551406169	-1.481607093928	0
30.981104050195	-0.5526690913	0
30.873880294509	-0.217692518774	0
30.706626759758	-0.34945139905	0
20.75	0	0
20.85240828135	-0.178025243856	0
23.75	0	0
20.66289882074	-0.189089155251	0
30.204950808504	-0.791758966623	0
30.715535843381	-1.149995259266	0
30.543724897762	-0.572259098027	0
30	0	0
30.180216671806	-0.343473673313	0
30.25	0	0
23.229584388362	-0.458653998547	0
29.5	0	0
29.623391954444	-0.322069028408	0
29.75	0	0
21.618913855927	-0.233585823579	0
21.75	0	0
29.348490380579	-0.521100538161	0
29.36294710412	-0.230601226356	0
22	0	0
22.25	0	0
28.25	0	0
28	0	0
28.129259193923	-0.314252106503	0
28.44374413871	-0.484576386004	0
28.100199615755	-0.812038297775	0
28.649230646972	-0.871769248311	0
28.618403654115	-0.227691192115	0
28.5	0	0
28.387848605749	-0.205892081491	0
29.054768525933	-0.708603081552	0
29.344906532636	-0.846887322836	0
26.327430876245	-0.35930637997	0
10.349120516034	-1.04150119828	0
10.894920134778	-1.514321070539	0
24.59640839418	-0.191760546865	0
12.75	0	0
24.5	0	0
13.102881121377	-0.411296235356	0
25.099388239946	-0.214879887129	0
25.97986022697	-0.52841375324	0
24.398993403151	-0.196312410538	0
17.860840746535	-0.577367743328	0
17.566481510048	-0.529340016102	0
26.5	0	0
16.637148248735	-0.188015807345	0
18.183918302467	-0.396443618316	0
27.159348252167	-0.205297590358	0
27.357530053515	-0.198815038154	0
27.25	0	0
15.060354649709	-1.112587998155	0
15.51532665618	-1.043792149387	0
15.178150912169	-0.713100616689	0
10.051363365948	-0.719159376333	0
14.661248691948	-0.27865166374	0
14.75	0	0
27.868836823455	-0.217301839861	0
31	0	0
30.75	0	0
-0.020273477909	-1.415389842481	0
1.054972770973	-1.487485199502	0
0.512583677021	-1.0438154777	0
0.75	0	0
2.361419414365	-0.794513604096	0
29.890297721653	-0.2433406165	0
30.473599299501	-0.238575611274	0
30.5	0	0
30.660802173874	-0.161931182737	0
28.783812899585	-0.467926883932	0
4.937022539393	-0.72440615077	0
6.696914540879	-0.380672503721	0
7.434272221796	-0.695675918868	0
15.339606453815	-0.166204802571	0
15.281953315711	-0.388999642276	0
11.893544445085	-0.335972898148	0
12	0	0
9.753796445798	-0.478866225926	0
7.720012958977	-0.638314519759	0
21.871398197179	-0.313006985103	0
21.615176662754	-0.521922347305	0
21.856785525528	-0.665128848631	0
20.792152536902	-0.448319093295	0
21.109577821412	-0.527879642114	0
21.360297691811	-0.734200004244	0
15.547854961707	-0.580173571081	0
24.496861814148	-0.467031445896	0
25.067351422649	-0.463427753535	0
24.81263825963	-0.684738154192	0
22.865620821195	-0.218348593093	0
23.443705587002	-0.773171720633	0
27.277617447467	-0.489224417775	0
27.863714790534	-0.471681393437	0
26.239117668995	-0.863279739365	0
29.896797054636	-0.547765129844	0
29.612773839625	-0.699757135752	0
29.867172666547	-0.87444432816	0
29.610354212963	-1.521444655905	0
29.59548165142	-1.071765512911	0
29.115129171034	-1.220660174798	0
31.345359428525	-0.458952144926	0
31.144859415042	-0.241304201582	0
15.919565295974	-0.746550096707	0
16.063006820294	-1.289595303187	0
16.5	0	0
14.900855313538	-0.178071167744	0
14.161016743654	-0.72559708689	0
19.011498044983	-0.834202892304	0
16.760433281999	-1.263698818643	0
17.280361389946	-0.931704507314	0
-0.627742252535	-0.296285438777	0
-1	0	0
-1	-0.5	0
0.625738545692	-0.228405936136	0
0.5	0	0
3.313957665883	-0.865581185485	0
3.619156095452	-0.800599314657	0
[...]
CELL_DATA 986
SCALARS 20.00_0.57 double 1
LOOKUP_TABLE default
7.3657506297429 9.4192089147759 8.4748803082988 5.8393181012021 5.1940187885406 10.358917567963 9.3874196978367 6.0428382113124 11.038359405519 7.5419685407859 8.8058885981475 8.9832688372379 11.738929278987 16.373946908987 13.184661438621 6.2187744770045 4.6455203615595 8.9790082118841 11.18437000487 9.1816478556386 12.167708297661 11.335809336851 11.173562261095 11.365368036666 24.530461838365 8.9345422570258 10.44595437114 5.0460430988125 7.3237406267771 13.592762903433 8.0026588561881 15.079978407968 8.5818845675838 16.013909947941 4.661053023769 12.347292096268 18.421024398796 9.1998729626423 4.2122700668164 4.9031354026954 8.1390534349861 4.6629069968999 13.862767972369 4.6258275981153 15.333680605639 8.2712063347501 5.9779829329262 6.3293518869196 7.4431801479155 8.0525408676496 9.9301612601115 5.8751320761564 5.1316784600605 13.358483015629 6.8274291915843 8.5333462263654 4.6341780639295 24.510469291454 9.4270265303852 6.7371068921623 9.101687602841 9.4305986059497 13.617013901892 9.3696350214786 20.618542075132 15.872263753722 7.9329838953432 7.0558510198644 11.327543650011 11.677271451247 11.053433590376 15.819936701705 22.204412941879 13.185932991428 11.642860031347 7.3486158044616 18.56587664932 11.460816940589 16.660328420168 14.16667246857 24.656354507422 5.3515757397822 10.804366958547 9.2673325859901 10.42500275424 26.023367520887 13.840329913004 9.6611059582898 18.372654490264 23.589607292898 8.1443054951558 9.3430755464812 15.782914485349 19.504272148094 8.5044354123373 12.686317816926 16.899168354837 14.654998966169 14.873015576498 9.9200212817152 19.508996940638 7.9770433085403 6.616331758647 27.584573192553 4.9123780026958 4.9246857496438 10.131003070313 4.2215751217782 7.9977313797724 7.3032114638902 5.898233230033 11.485366934241 9.7979263466135 6.3531989197886 7.8979410613517 9.8572653723354 6.990410289683 9.0706118082629 10.379534394327 10.244037504094 7.4934864792701 12.065358174675 7.678376902679 5.9565980112421 6.760815175067 10.522209169993 7.7474864055819 6.5526902532529 8.3130580943438 9.721856862768 8.0709091864243 8.7551044177147 16.334320426737 8.6152210981107 5.7503484375644 25.141205696176 7.5653533299732 11.589576195091 17.569276878874 5.6817070488345 8.8300610701494 7.7651268621282 10.74277964637 12.980285348984 41.173298621027 22.787194644117 8.9510196901419 5.593944721369 9.7925856037237 7.1267805063884 9.5135406392323 13.71846033387 8.4679614980699 7.3653490722042 16.724449262191 15.768839803688 12.967976002097 5.7534223265001 8.0961734569276 8.7010920460996 11.647135197952 12.639357053747 6.2864072792135 16.303466709369 14.608837446374 5.8266361310058 5.237985657743 8.7756197466983 18.325104245115 11.704655391489 16.554071651915 6.9744829581169 4.7613673725789 5.6444392125246 10.134803296195 16.35022080701 12.198486547741 9.5040330297814 9.7898931447688 12.568529713743 13.962251413622 10.571725750093 13.009678455664 5.5323311242193 6.9139754955186 16.017418200829 14.010099786003 13.543422338607 9.3632062291636 5.8687016116579 7.705509295653 5.320138335842 9.4293639716768 5.031523279034 13.194155423678 8.3493175886063 4.5259905262662 11.483597929011 14.552772816922 9.4238459655497 11.931353700516 8.9897295455533 3.1374132365359 8.3744600101598 10.968821371234 6.3615092863065 9.3582849787832 12.032956148059 9.5235120566822 16.697156191774 8.1864729420142 10.910345815308 10.739551244016 6.5751394352129 5.4097320134167 4.7838103539064 4.7380662587546 8.0105518406666 5.2497908171549 10.337332689487 8.826035473592 10.835525747161 15.780196515793 11.216641178988 12.475222092752 11.206581421721 12.177734608247 13.332444268828 9.4793082023324 10.150480498881 11.098550816344 4.6806755201051 8.6852062730592 9.3196655673883 18.103712530887 9.7952248979085 10.63635435464 6.9519898221499 8.7450202372503 9.7354531236292 6.6600600310375 6.3824603499722 11.08754606964 9.9251499022179 10.098043364267 13.111161962871 4.723866216568 10.294473492553 10.554823115146 7.7129742254329 6.1005679052712 6.5261601819334 6.1166739230567 9.8231405958688 12.220290720242 5.4968986650853 8.9417793133386 11.949590869407 7.8001820233877 6.7344868508569 12.204569681572 17.83448219616 15.678537044114 10.313596344118 7.5760234204824 15.136069822971 7.2344593014611 7.9374012613698 4.7039670995063 6.5573561086757 9.8530868446609 11.051365494778 10.94958454477 13.817183984817 15.505252389645 14.07005399336 5.0383637129593 8.2544989078099 10.588677318222 5.7160699856621 6.9677472713687 9.5123458223624 24.938472917409 14.321426644655 5.9070291934992 17.181522355831 9.0339961507138 14.565219719724 15.238369082922 10.945032364272 8.5462554236329 8.1975619213111 6.506252940396 10.242542430558 8.1003271710423 11.361033472172 7.8465973040126 10.506849796051 24.974493856336 9.2315328132049 5.697407588602 10.837111339355 13.920536719514 10.937253311741 5.0384835460724 6.6935943433752 8.7529461352303 10.986299106551 8.4939272467091 11.789367691344 8.8537595700328 11.473106412935 4.881510689899 7.4662973459376 10.359986251656 6.5507658423546 16.336084171828 7.0755399657269 6.6195285524785 10.826439992741 8.209399036878 9.7180534800966 5.6558847117011 6.1139446110097 8.0792223089363 7.6015767605109 16.986792801315 6.1036095268003 4.8971538027515 4.0898342752628 8.6989367228206 5.9297411231347 9.3744139638684 9.8597577578133 6.8084967857856 9.8582299499032 9.981302821307 19.086390951603 7.7108853248092 17.27328601353 5.4423838508826 4.8233910566713 9.2985965017936 13.043808941985 13.251120867696 10.336311110528 11.603901396583 20.533547018686 13.373917217864 4.9844300383179 8.6681973855256 6.0907984832211 10.232406638829 6.2483560396744 4.8507489152909 5.0949905939668 6.2420056568494 8.1046044988617 3.2895707926171 7.8413941268214 6.8205275279266 4.2309609312187 8.2047685958078 8.3004148230182 11.745266048267 6.6149527271504 5.6351321605652 4.7327205025419 6.3920977781468 11.399882588788 10.307117082694 6.6972843469812 5.0292152882187 4.8148021486563 6.0808097778788 9.8499279855484 5.9255052383898 16.114476779212 11.09674577517 4.8366724269426 4.6148700650207 5.61785940294 8.6753515746862 7.8039953909096 12.170600892671 21.562320953066 7.1885333217046 11.452982129818 5.9589420493045 21.458926982086 7.4734763955743 6.9887005265161 4.4508923118224 9.9832795188384 7.0007496233705 7.6828780808663 5.0534485546247 8.7600255304433 4.4204921137365 8.8940258696815 12.619571039262 11.697601345675 8.9911508403229 6.154896837292 4.8587678585802 18.708215744596 4.4953112872298 10.736926578252 10.114775154854 7.446905459655 15.066459968772 8.4073834890095 7.7204270178635 6.1005224285082 9.0593239261556 6.0279373085038 5.4984422850688 6.3928312938474 4.8147878606445 6.1860042468854 4.9845904475287 13.150165624118 8.5834791201461 5.5570793042343 6.0960318646157 6.9066564148149 5.4445385788307 6.0285105089776 7.569449613801 5.4815017637827 6.5122556331775 13.925186552885 9.7696521385809 9.2477867136702 12.142015743741 11.853685865961 4.2256754088912 7.3626675963312 4.1916043184713 5.8710797132129 4.4389361609168 7.0333323512171 13.598325541675 10.382188901073 4.4169129218473 9.3949333075684 4.1856328462326 5.7801127319983 5.743534677197 5.9766266370118 11.278737843261 12.950901769716 12.384758489393 6.6477549540126 4.894051869059 4.0540741048058 7.3103027457289 11.093407506331 8.937807480017 9.4913885666598 8.0951487735507 10.050236615492 8.9810025544238 8.077891968152 5.4766655515699 4.0525938212782 5.4849364915653 5.517131751716 4.3219702947646 4.3178217411623 4.3371033236964 10.005310289096 6.1243116961454 4.0396640562994 4.036262919214 10.552965947659 7.0646681812828 6.0093888726895 5.9481038992175 4.7752250888978 5.2064009420593 4.8691053616021 4.5994757083325 13.65720716801 8.1400550754478 5.0425459603477 6.2495292271132 9.856047796936 6.8601624476522 6.2147619076958 4.2593306238911 8.89010944796 10.523086108466 13.727713033897 5.4062148804306 5.120861881281 4.3429901647595 4.0460488019791 5.3554979927382 6.8364310690624 5.4839088797992 5.6604198444041 4.3669370804314 5.3484396525701 6.7108412957231 11.231757697925 4.5460919289355 9.6754579732583 10.194025326249 4.2039512649136 7.3344053059305 14.787207362891 10.529924652014 4.5326863175978 6.7318366256716 6.1373338837849 5.0395864869604 4.9199765409955 4.4040333935709 10.0083515825 9.5224785812251 4.4785814283167 6.8240819435163 6.2425072206248 4.83957739172 4.9107794820112 4.2976205049439 10.183409704376 7.5588749359308 8.4494580119167 5.0520137267419 10.574960965668 6.8031292942545 8.7467508204847 5.2211676453427 9.8696159573451 11.170366878737 8.9053465993977 4.5672415419244 3.9370952472069 5.81917368251 4.8179521164603 5.0585256398898 6.4594054431263 4.589041133175 8.5139740139793 4.0117525337365 5.1000592380506 3.6639778909111 4.1449809479477 6.5919356263751 5.2682910351989 2.843612381975 5.2615714345357 6.6565088833054 5.9567023792704 4.8854046583642 6.0231868523799 5.192333817688 5.5992269896209 4.7454558983759 4.6082859144381 7.5002756516606 5.3060107124903 6.0369182487138 9.7985038016182 5.0598501508814 4.2292451348398 5.1515495907898 4.8172305472123 18.26887895778 5.2711445686195 6.6588617170964 5.3573457568614 10.261539903091 10.121636285845 4.8201113284978 3.8248244390205 6.6634989254287 5.5046779442609 5.0112024842299 5.4823232050648 12.753305936056 6.4494134696789 5.0201947978651 7.3668210124552 10.189894489753 6.5124539741854 6.940490178628 5.7240215086035 6.2476137238566 5.2549239680334 3.886948668034 3.113083800215 4.0671970361046 5.6516820873108 7.5325933414386 4.6842226421256 4.3808195562689 5.1112180199343 7.771617488116 5.460197954237 5.8967327669981 4.7633584485322 4.0396082530664 3.8979147168427 4.6921572969519 5.6316944549213 7.5247987062918 6.202221572842 5.4810898854339 4.9838366526682 4.6732418987437 11.859816915808 4.3062189482033 11.194621930907 6.1982807143425 3.9817925692987 8.8083588403588 7.1301593443547 5.6551741932501 6.6145304397888 5.3392077398096 4.6212855247678 4.7030767747086 4.4473979708281 5.9898964679646 4.7460350157237 4.2632766284617 4.4307561024699 4.0121444747663 4.9555055341766 4.5894222089812 7.1640375038447 4.251081344265 7.2422918765076 4.1111707754413 4.8104279659186 4.6478070339624 6.0311582124987 3.9905085907487 4.5059279609687 5.2079205311241 4.2078489058109 3.9837994375633 4.5589854312223 7.0725804094988 8.2534247203782 5.6951535935034 4.1978083571429 4.4449781628051 4.0096273862735 7.9831165477253 5.6791087504634 7.0191643963073 5.4826187452358 8.9391627638212 9.2637700588533 4.2133956448192 8.6307416139452 4.2699117851013 8.4123415842553 5.5498322910965 7.5010048205473 9.1652703304683 6.6490331737489 7.8775895038638 7.3010614488282 8.1988695395978 8.3613472718382 8.5942970568572 7.2395409506907 8.2346728337735 3.9285284111526 4.9286585425809 7.329618129193 4.5897833322148 8.5758096817243 5.3518856521661 4.941102314329 4.920990374589 4.9656999239037 4.4677494481053 4.1717049548506 4.3235582600373 4.0784195920055 4.0362649816815 11.121427090144 6.5847190925976 10.610627641561 8.9937260576145 4.2660377701842 3.8421917368708 4.3523522205285 4.7539761696542 4.9183109785943 4.3403530668911 4.8736399077727 4.2980055583344 4.8363609964753 4.6243980741334 4.8082640172358 4.5633838139224 4.9058850128415 5.5084219960313 4.5118204552201 5.2232674482649 8.0411347852753 7.7711643357326 4.815378506813 3.682425167047 3.8513271675932 4.2134282447537 3.9265386814124 5.1882519490517 4.7291341050817 5.1832193568438 5.6261328274793 27.18644728209 14.980082462095 4.0784471388098 4.3343137211538 5.83052070921 4.4109944748252 3.896820123061 3.9851675489723 4.3043668402823 6.2463780134806 11.18102646403 4.831850226422 6.491637030781 4.2398421832651 4.9172548188005 10.13736818544 4.338208619446 3.5498782268199 8.3177188580855 4.5490190290721 4.0395947700116 5.981658032331 7.1761964899008 4.6702019704294 4.2704434398075 4.471887273684 5.3391151431745 3.9783753413237 4.6859134609119 3.9345516820842 4.0178729346998 4.2655907160995 6.4887035441075 4.1675688103013 4.2685403772901 4.2038273301376 4.2628562511381 4.1755564746396 4.4821424347747 7.8178677055246 3.9807997197404 5.2874795247631 3.4498073677136 3.8608573968416 4.1548899250392 4.107492801378 3.8147968383075 3.8971030818425 4.0674982680158 4.4236377033163 4.9175053103522 4.0659455061043 6.3562513164365 4.3245019071741 3.8932885285698 4.3286138334214 4.5649930059752 4.6266664297086 5.2555427280149 5.9662956691184 3.0743777754987 5.5096567309743 4.9079229052203 5.1638826827228 4.7631649813133 4.5923259678827 4.2415254077323 4.6259443227883 4.6611015581455 4.7170360128257 4.9268627271903 3.5273307096299 3.933009440212 3.7180192411596 3.9441083463219 4.8859913144273 4.5709467383195 4.1501973241419 3.980219370797 3.9779196891598 3.8342928617579 3.923484540349 4.090472318912 3.9406968458796 4.0223220153948 10.263751252559 4.0818329564796 4.6895634249128 4.3345439337967 7.7434158165843 6.6818714404266 3.7020080240786 3.9747182652867 3.8681460214857 4.4935778636205 4.0594756152646 25.928912733878 3.8094701105042 4.0396835649549 4.1189176924844 3.4034797762544 4.8113778299658 4.9925911948108 4.8035813375417 4.7023526483597 3.9051100896374 4.8566294269838 3.9055851150092 3.8516770429585 3.9722459578901 3.8662906962715 3.6776845583313 4.2919839009296 4.6540087116806 3.6848725702145 3.9398134940912 3.6908549641204 3.790993305332 3.7640159417958 3.9033743194309 3.9221441797337 4.2805399111161 4.5513585136955 4.9742547466074 5.4680363758254 3.7046749866405 3.724124313249 3.9360247150013 4.1851306949488 3.5848044606474 3.6272650958422 3.645412981652 3.5804359554219 3.8699900445275 3.8472087619092 3.7863459462804 4.3565131891283 3.6684863652042 3.3619868899798 4.3393514486707 4.2055325567969 3.7903258502564 3.7095136269455 3.8031799614367 3.7655355257269 3.6576026193572 3.7213548351774 3.7441939392956 3.7067211017344 3.7760887674374 3.4799695536347 3.9236923714969 3.689142711213 3.6835331163274 3.9078197749643 4.1489458241174 3.50432545928 3.5928362651959 3.6169880836266 3.5690440906227 3.6183288382146 3.6346856296706 3.6254942461776 3.7539934761193 4.0513885725008 4.6148750426193 3.468718706064 4.1331559446399 3.4543077883812 3.4635512332046 3.7642481601642 4.036541223306 3.4345986391523 3.4124935244934 3.553300683883 4.4907567729153 3.9777638961959 4.2844153925366 4.3638761561114 3.6955915927899 3.8458941017129 3.897774897151 3.5606734011869 3.9560075453432 3.8494062075754 3.4532986789854 3.7896246034437 4.0307943222863 3.8318476075873 4.4703735591506 3.39088624623 3.9207078659413 4.2487978377793 4.4258427865475 3.9127961927137 3.7034771816585 4.0996094459695 3.4113725990788 3.6176155739288 3.6839814818208 4.1017440680891 3.6018357136099 3.8353925471907 4.322967291205 3.8059099439619 4.3924639302847 3.6364055774085 3.856716089935 4.0909405135999 4.2107750705348 4.0677086983356 4.0025071382905 4.1780677711574 3.7087709333407 3.854557041391 3.3742038979845 3.5172785914646 3.6956738784279 4.562982388413 4.2191550659518 4.0292899080158 3.7972933931045 3.9678290693536 4.0980541795606 4.1576131297392 4.3001758744513 4.1587170314691 3.5885567906173 3.627135700096 3.45344578002 3.7624132502045 4.2818271572446 3.4081224202169 3.8520261488421 3.9206698481878 3.5535418272187 3.6804575175164 3.7061515067077 3.9041738474894 4.0152875830004 4.0386875433984 3.8384137321591 4.4241885287324 4.345029594982 4.1731997105681 4.1767104268348 4.0427152694679 4.2773508855038 4.3621202803798 4.2748754763834 4.2137571786469 3.9830607412005 3.7207088418712 4.2709359245524 4.0777811616903 3.8860915616904 4.1242084556494 4.2567459814117 4.2720202562162 3.8400654996292 4.0640136162054 4.4373327985124 4.4648760052214 4.333639213651 4.5113161352841 4.2159327986516 4.446838929853 4.4531480963386 
SCALARS 40.00_0.60 double 1
LOOKUP_TABLE default