# vtk DataFile Version 3.0
d-2__ created by libgimli-v1.1.0
ASCII
DATASET UNSTRUCTURED_GRID
POINTS 570 double
14.5	0	0
14.25	0	0
14.386963504964	-0.201738469428	0
22.399299936458	-0.310870122736	0
22.129824335287	-0.229914148082	0
22.126320781198	-0.518791771445	0
8.472303742627	-0.591754876635	0
8.780507935475	-0.76092407121	0
8.82173151259	-0.349253271447	0
18.663262297679	-0.667179415955	0
18.934786529245	-0.453308328646	0
18.636898038907	-0.29588182328	0
4.016904362632	-0.85330676142	0
4.076038737616	-0.331410355179	0
3.713721571226	-0.470767763626	0
1.89953779852	-0.269343012166	0
1.633800503821	-0.203067612233	0
1.644492760828	-0.441295523531	0
4.368408037607	-0.250833874131	0
4.337474161742	-0.544420985055	0
4.67745607622	-0.378433532554	0
1.406172533733	-0.772361039307	0
1.913288206557	-1.218576310882	0
1.90687689783	-0.651895683444	0
2.5	0	0
2.25	0	0
2.347047126858	-0.185539804102	0
1.374000926997	-0.300418771701	0
1.25	0	0
1.114902662369	-0.201591505098	0
1.067401015567	-0.470108640981	0
5.75	0	0
5.699780065382	-0.324747799653	0
5.924584257371	-0.172748359932	0
0.883560935405	-0.231136840652	0
1	0	0
9	0	0
9.117836368049	-0.253904480787	0
2.625577516194	-0.346770599322	0
17.859079774019	-0.943547525024	0
17.535029634209	-1.703182852412	0
18.338018094476	-1.366069799339	0
19.932263871771	-0.826489183604	0
19.881635677668	-0.346204516721	0
19.622287080959	-0.573770479943	0
1.5	0	0
1.75	0	0
23.25	0	0
23	0	0
23.109690227386	-0.220340974338	0
2.75	0	0
2.142562771237	-0.172460438312	0
2	0	0
23.332392704446	-0.202507275941	0
23.5	0	0
19	0	0
18.75	0	0
18.888143078348	-0.195773419804	0
2.90152418742	-0.185685383897	0
7.612175045312	-0.180627982114	0
7.527150943175	-0.401430797998	0
7.881917737402	-0.30462800112	0
25.630635194756	-0.512020961038	0
25.243766894324	-0.80097755811	0
25.758031115142	-0.952821630144	0
3	0	0
28.84859809239	-0.201276387394	0
29	0	0
28.75	0	0
4	0	0
3.835807353334	-0.199536243303	0
3.106904732949	-0.178783649348	0
29.25	0	0
29.092446172194	-0.305987136665	0
13.5	0	0
13.667851890428	-0.185102765244	0
13.75	0	0
3.75	0	0
14.407363653886	-0.441423674912	0
14.125469935998	-0.279652141152	0
4.25	0	0
5.061980176718	-0.407989246181	0
5.335512032876	-0.269401530321	0
5.113979852892	-0.173834924157	0
11.882046000841	-0.812345557852	0
12.478640631525	-1.146569360669	0
12.244190771573	-0.565936619511	0
3.633270844505	-0.195395238442	0
14	0	0
18.378272976509	-0.514977451159	0
5.5	0	0
9.619519097921	-1.16461851757	0
10.030576753886	-1.587265312651	0
9.961661342999	-1.070235523667	0
5.25	0	0
5	0	0
13.157975569138	-0.830425793913	0
13.83833027638	-1.238601004239	0
13.671302359608	-0.710707966059	0
11.325917093147	-0.8366783502	0
11.612143285947	-0.506264798476	0
6	0	0
7	0	0
6.83842404292	-0.188923754932	0
7.11236984822	-0.391746146843	0
6.631875629497	-0.169178192832	0
6.75	0	0
3.21002197083	-0.595267231049	0
3.445510026908	-0.608065324465	0
3.362318141622	-0.306501255187	0
6.120159502895	-0.164221934939	0
4.538525595924	-0.906226152762	0
13.233775457127	-1.737244787017	0
4.5	0	0
16.138065841822	-0.472802517973	0
16.126746690205	-0.221608117926	0
15.859319180798	-0.326402762318	0
26.080401003391	-0.227842452866	0
26.25	0	0
26	0	0
3.019224421113	-0.401469974918	0
8.234901607028	-0.35771789179	0
8.518285578354	-0.242327591839	0
8.328777073389	-0.153008859619	0
7.25	0	0
7.400656881666	-0.195280611572	0
7.5	0	0
5.385509485898	-0.709154879541	0
5.948697127931	-0.745234910621	0
8.75	0	0
8.5	0	0
8.25	0	0
2.214249105773	-0.404278959534	0
2.896561357202	-0.792481120253	0
9.25	0	0
4.920911116561	-0.192028847294	0
9.651670336652	-0.200847798694	0
9.849824537955	-0.19917205686	0
9.75	0	0
10.095049354068	-0.315754204277	0
10	0	0
3.25	0	0
6.738406513564	-0.710129601907	0
7.121614580011	-0.943026074581	0
11.345829942703	-0.314788260019	0
11.25	0	0
11.104427225455	-0.188863495516	0
6.052412255932	-0.372556729023	0
6.373371846535	-0.274163514827	0
10.25	0	0
10.380281579003	-0.241092027437	0
10.5	0	0
10.75	0	0
10.909079077441	-0.189427130481	0
11	0	0
6.25	0	0
6.5	0	0
4.75	0	0
3.5	0	0
10.672815698565	-0.318467932684	0
10.772487906066	-0.787092734739	0
11.020900486567	-0.439266778492	0
8	0	0
7.75	0	0
11.5	0	0
11.619450354737	-0.231443672836	0
11.75	0	0
8.139317726831	-0.163309591658	0
12.25	0	0
12.158949464947	-0.235415698299	0
12.412455385193	-0.275030800337	0
12.929165084344	-0.221336108042	0
12.686337592177	-0.258437422252	0
12.900449535554	-0.462768612232	0
12.5	0	0
9.405755833308	-0.325979504745	0
9.111697192308	-0.594170467817	0
9.457257345083	-0.753685223931	0
18.101369157139	-0.618560521812	0
18.336839281097	-0.861122419318	0
10.385948631267	-0.570640149046	0
9.5	0	0
13.411260455969	-0.342646276848	0
12.643108055516	-0.590179775368	0
13.137744715761	-0.195204172124	0
13	0	0
21.25	0	0
21.358341816502	-0.326561417551	0
21.5	0	0
13.816492716597	-0.40394453634	0
20.25	0	0
20.423452336785	-0.313445603959	0
20.5	0	0
17.789350393153	-0.390447709085	0
17.987794057246	-0.401472255242	0
17.881276545163	-0.206424156589	0
19.564465692234	-0.270867872644	0
19.290725118801	-0.49926248604	0
16.392319441256	-0.29915360323	0
19.443730892406	-0.923508713428	0
20.457987075478	-0.803203365193	0
20.167450719332	-0.505159975143	0
0.103762538371	-0.253013629949	0
0.267057015134	-0.483604909932	0
0.374713194419	-0.2320817565	0
13.25	0	0
17.415572543912	-0.230682214253	0
17.5	0	0
17.25	0	0
18.108153655084	-0.208141099276	0
18.25	0	0
18	0	0
15.75	0	0
15.544586046819	-0.246453491997	0
15.122708481244	-0.193620038745	0
15.25	0	0
15	0	0
19.75	0	0
24.149237782749	-0.319013340846	0
23.842766599446	-0.577371105011	0
24.183995039967	-0.73159476451	0
13.871646321742	-0.17394291424	0
23.862588150518	-0.245417872715	0
16.84024277193	-0.203626765466	0
16.704049384397	-0.435508179396	0
17.112673188265	-0.38804641709	0
24.75	0	0
24.832880292394	-0.290571430318	0
25	0	0
16.40158555625	-0.755912194683	0
16.850299990829	-0.757941865332	0
17.75	0	0
23.567455674596	-0.325197491724	0
16.25	0	0
16	0	0
22.645812614293	-0.197864648876	0
22.75	0	0
22.5	0	0
16.75	0	0
17	0	0
24	0	0
26.914424714815	-0.337869958787	0
26.621963281699	-0.624626679172	0
26.977877660759	-0.778408201088	0
26.622424322919	-0.264588309935	0
19.34462271879	-0.199329831305	0
19.25	0	0
19.118057075065	-0.225686869553	0
19.5	0	0
26.75	0	0
27	0	0
27.5	0	0
27.604422363523	-0.298869962794	0
27.75	0	0
17.650384190064	-0.227839036584	0
18.343198956448	-0.236734208617	0
18.5	0	0
24.25	0	0
20.143897114391	-0.233773711865	0
25.5	0	0
25.25	0	0
25.344389320279	-0.31693710653	0
21.059546193318	-0.24845941382	0
20	0	0
25.842927934822	-0.248287716678	0
25.75	0	0
25.613904645132	-0.216025146631	0
21	0	0
11.763551406169	-1.481607093928	0
30.981104050195	-0.5526690913	0
30.873880294509	-0.217692518774	0
30.706626759758	-0.34945139905	0
20.75	0	0
20.85240828135	-0.178025243856	0
23.75	0	0
20.66289882074	-0.189089155251	0
30.204950808504	-0.791758966623	0
30.715535843381	-1.149995259266	0
30.543724897762	-0.572259098027	0
30	0	0
30.180216671806	-0.343473673313	0
30.25	0	0
23.229584388362	-0.458653998547	0
29.5	0	0
29.623391954444	-0.322069028408	0
29.75	0	0
21.618913855927	-0.233585823579	0
21.75	0	0
29.348490380579	-0.521100538161	0
29.36294710412	-0.230601226356	0
22	0	0
22.25	0	0
28.25	0	0
28	0	0
28.129259193923	-0.314252106503	0
28.44374413871	-0.484576386004	0
28.100199615755	-0.812038297775	0
28.649230646972	-0.871769248311	0
28.618403654115	-0.227691192115	0
28.5	0	0
28.387848605749	-0.205892081491	0
29.054768525933	-0.708603081552	0
29.344906532636	-0.846887322836	0
26.327430876245	-0.35930637997	0
10.349120516034	-1.04150119828	0
10.894920134778	-1.514321070539	0
24.59640839418	-0.191760546865	0
12.75	0	0
24.5	0	0
13.102881121377	-0.411296235356	0
25.099388239946	-0.214879887129	0
25.97986022697	-0.52841375324	0
24.398993403151	-0.196312410538	0
17.860840746535	-0.577367743328	0
17.566481510048	-0.529340016102	0
26.5	0	0
16.637148248735	-0.188015807345	0
18.183918302467	-0.396443618316	0
27.159348252167	-0.205297590358	0
27.357530053515	-0.198815038154	0
27.25	0	0
15.060354649709	-1.112587998155	0
15.51532665618	-1.043792149387	0
15.178150912169	-0.713100616689	0
10.051363365948	-0.719159376333	0
14.661248691948	-0.27865166374	0
14.75	0	0
27.868836823455	-0.217301839861	0
31	0	0
30.75	0	0
-0.020273477909	-1.415389842481	0
1.054972770973	-1.487485199502	0
0.512583677021	-1.0438154777	0
0.75	0	0
2.361419414365	-0.794513604096	0
29.890297721653	-0.2433406165	0
30.473599299501	-0.238575611274	0
30.5	0	0
30.660802173874	-0.161931182737	0
28.783812899585	-0.467926883932	0
4.937022539393	-0.72440615077	0
6.696914540879	-0.380672503721	0
7.434272221796	-0.695675918868	0
15.339606453815	-0.166204802571	0
15.281953315711	-0.388999642276	0
11.893544445085	-0.335972898148	0
12	0	0
9.753796445798	-0.478866225926	0
7.720012958977	-0.638314519759	0
21.871398197179	-0.313006985103	0
21.615176662754	-0.521922347305	0
21.856785525528	-0.665128848631	0
20.792152536902	-0.448319093295	0
21.109577821412	-0.527879642114	0
21.360297691811	-0.734200004244	0
15.547854961707	-0.580173571081	0
24.496861814148	-0.467031445896	0
25.067351422649	-0.463427753535	0
24.81263825963	-0.684738154192	0
22.865620821195	-0.218348593093	0
23.443705587002	-0.773171720633	0
27.277617447467	-0.489224417775	0
27.863714790534	-0.471681393437	0
26.239117668995	-0.863279739365	0
29.896797054636	-0.547765129844	0
29.612773839625	-0.699757135752	0
29.867172666547	-0.87444432816	0
29.610354212963	-1.521444655905	0
29.59548165142	-1.071765512911	0
29.115129171034	-1.220660174798	0
31.345359428525	-0.458952144926	0
31.144859415042	-0.241304201582	0
15.919565295974	-0.746550096707	0
16.063006820294	-1.289595303187	0
16.5	0	0
14.900855313538	-0.178071167744	0
14.161016743654	-0.72559708689	0
19.011498044983	-0.834202892304	0
16.760433281999	-1.263698818643	0
17.280361389946	-0.931704507314	0
-0.627742252535	-0.296285438777	0
-1	0	0
-1	-0.5	0
0.625738545692	-0.228405936136	0
0.5	0	0
3.313957665883	-0.865581185485	0
3.619156095452	-0.800599314657	0
[...]
CELL_DATA 986
SCALARS 100.00_0.15 double 1
LOOKUP_TABLE default
10.774871302285 9.3961139399673 8.4234411853388 7.964786717359 7.2031342984575 9.8179970170162 8.6167522454478 6.5720883639952 10.27616326323 9.5580953321249 8.9740984624032 9.8445830742047 9.314648087809 10.061263788195 10.320797145106 9.6175368542672 5.091796508505 8.4786596006126 10.949514233879 10.742920965944 10.516969622807 10.225518560155 10.219810814171 10.345589500489 10.312827690733 10.125633421265 9.7358000065533 6.8404221033875 10.18716822361 9.9349590284758 8.8160040540113 9.6568376787346 9.8737982803143 10.560411975563 8.5704377359968 10.439858041415 9.7007219740911 9.3694160592226 6.7207365546893 8.4859969583466 11.542076027008 7.6403760846738 10.071938012018 5.487192525571 9.7561992998732 9.4490234506291 6.9462213781142 7.7234499512622 9.7542869792287 9.8743931586102 9.1027339075423 8.3922747949274 7.1228355955899 9.7096452465435 7.4001870522787 10.169592206725 5.3772879177741 10.346391865847 9.394484043941 8.5630657406217 9.6607224424755 9.1791351794802 10.30458321712 11.145134890546 10.534002792485 10.223893667355 7.9375296674862 7.6756913943606 10.783966579576 8.6110589528447 11.263854770354 10.190119254431 9.7046856565509 10.380644264925 9.877289305427 7.9048267965417 9.7036086754765 9.8460526305883 10.814337537973 10.692291938708 9.1046191336768 6.9662161822767 10.216393547036 9.0023614712539 11.521041185882 11.538621170292 9.1865460951077 10.965436478464 10.128210734228 11.023281268969 9.645874181095 10.504674701481 8.4742511361879 9.6538448607166 9.1770507571887 10.518468253916 10.849073410056 10.649879305661 10.046453807166 10.202371338679 9.8773497711548 11.068807756317 9.5749330647266 10.143336701091 7.8330857332949 7.0440995499098 9.9463442030753 8.8949595735249 8.618370640834 9.1393303150656 8.8016582764371 10.704072333918 9.0490719084753 9.564879487201 9.3827212793784 12.13513755859 9.0832539688951 10.97118028403 9.2620699025951 9.6374844684737 7.7328009247963 11.133300725336 8.8735765560051 8.1940051107796 8.7122076163052 10.203516093172 8.4234598546941 8.0779254055854 11.08752111871 9.4721299848831 9.1433361845026 10.011290702914 10.073185801189 10.680472743305 7.5042022143801 9.9527035230847 8.5567107948514 10.235142878957 10.73413645266 8.2088229380286 9.623806183984 8.6125815736885 10.157781795091 9.9352704985426 11.936715032462 10.962474142016 9.4198655355954 7.0134517211442 9.1715065044574 7.9966127081587 11.356826794212 11.945057871264 8.7845028149973 11.218275156576 9.6722896787072 10.192699165313 10.326853197069 8.8822326921345 9.0323760864016 8.7447748183045 11.822785696912 9.9758388655746 9.3511129008909 12.288883273136 10.017658616584 9.6105312610588 6.1471843069792 7.8623100330354 11.336026450372 9.9916372071436 11.508158416787 10.879054106749 6.8903861819468 8.2028155647221 9.6283025062747 9.8364471201528 10.715078244699 10.097879071027 8.7480448291907 9.4429047419517 10.397738040273 9.5679489999375 9.9728462996332 7.0576395609533 7.1908613663906 10.736260132108 9.9489647594861 10.302452204292 8.8113708584268 7.2285761206056 8.1086418306992 6.240604974413 9.6091723942637 6.6166406759561 10.179168797992 9.8570897325908 6.6329821122868 10.969213567896 10.20071687223 9.3813440224534 10.36307329858 9.0541819126983 9.564892528989 9.6479419772584 10.321946944152 7.6422413441838 9.2963212928148 9.7087670892676 9.2583158662391 9.9124963767528 9.141577410813 10.305873087237 9.1260650393161 8.5184160790022 9.0091951262469 9.0900501500068 6.2052239704849 9.167446862187 6.448324588506 9.0997020394577 9.484750621103 10.029585676276 10.524929182792 12.558072439553 9.5628214712483 10.152011892167 9.8711753156984 9.9210128916701 8.844495786387 10.791192508958 7.8459412616605 5.8130284483967 9.4387248835004 9.4666309305865 9.0869233329594 10.03863300176 9.6333859320337 7.21119529849 9.7158562329856 8.7921189657886 8.3563243650326 8.0667965063042 10.502124923807 9.5349423134738 8.2961935952345 9.824096441323 8.6280073340458 8.0953186738675 8.5882620072621 8.5447597331811 8.0803716930643 8.9054923891189 7.2900882527708 9.4067204945 9.7578036672796 8.2021984635375 10.65408844742 9.5155436398061 11.030434933495 7.680957348611 9.2387522386791 8.7565365728921 10.188682650491 9.5606299133468 8.4202607632929 10.746249742518 8.3415866171289 10.268810883254 8.3182020035229 8.3843940881606 9.0807116272214 9.7788131375575 9.4045994495963 9.316384440736 9.9298965217541 10.122103984564 8.8280033470415 9.5204219734301 9.8321514533112 9.9908594304577 8.212115244375 10.258345401455 10.991015966396 10.591779879832 7.3504411248576 10.925562287888 9.8370234708138 11.033678820227 11.098213423086 9.9979717616431 8.8043438916517 8.1775108002436 8.2612729563437 10.280367923132 9.3746729744339 11.152396394736 9.1846891101407 10.568432821362 11.484802648385 10.001210538965 7.8596619874731 10.544698508674 11.632849841511 10.340521542305 7.6772773446935 8.2859780255551 9.929393444862 10.228279202099 9.2780819948038 9.7195545326763 9.4824272610593 9.9023315138449 9.1388939094457 9.260499112718 9.2116875842665 8.4362369084446 9.8948233313354 7.9415806726901 8.4756370108637 9.8637491420834 8.7667338565532 9.6439127922103 9.179322085196 8.6270773262483 8.6267574003939 8.8429729258169 10.459741625809 7.3921523166263 7.1147240919582 5.5244818698488 7.2502834258478 7.8353189909701 8.123191486319 9.4804475090876 8.5836639281633 9.2426983895716 7.6821031914404 9.8609484345323 8.2387267506959 10.25119694483 5.9842882430809 6.7779133427778 11.364419616746 10.491923994763 10.391125238878 9.6363177694937 9.881571244656 10.3925833949 9.8794676337418 8.236694166346 9.694450794351 6.9696001185575 8.9935955867095 6.4318696399673 8.29430675436 6.6398660568042 6.4887236405085 8.2869517885812 7.5208760550558 9.1697955620506 8.4852644577645 6.1808230138117 7.7250566124086 8.7868306678624 9.8231311954967 7.4015066678011 6.5909878638049 6.2056731974619 7.4547143677766 9.9781139230751 10.231096314438 8.6168151636335 7.740835577843 6.9207309709191 8.2035008989653 9.3119628041168 7.8612362545476 10.219215160748 9.7125285156552 7.17800937175 6.0061312062339 8.1756719599215 9.1870909679747 10.282152777191 11.436490943139 10.256208644039 8.9280594550135 10.113973763992 7.3554462074555 11.115489869545 8.8093277159498 8.4781008659055 6.8862969675181 9.7044593843566 8.4387314763819 9.971249326064 8.0670197603223 8.7509903665554 9.0705078437664 9.1830566538959 10.355850764998 10.609421502501 9.4867608054214 8.6650921773004 6.7966315042081 11.219311344419 7.0580688118174 9.3086758243591 10.400975908412 8.4143273147711 10.946408866117 8.8643617490579 8.6906997892756 8.2136503403319 9.3579419480965 8.9799564773471 7.633436875781 7.5693924952049 6.3480262406144 7.9979914901119 6.5611154406118 9.8426793707765 9.217442431346 7.5394466772927 7.793828261795 8.9254755980396 7.1757136505821 7.1057967757405 8.0847888155574 7.2693404120194 7.7424309250787 10.279155915405 9.4009239859334 8.5144960429383 7.7617177778595 7.8295836087332 6.1685221906847 8.0694910050833 5.5101090507447 8.3844137759729 5.8861491509744 7.6704965546903 9.5960249409295 9.0765222936077 6.2548100807807 9.2643696503276 5.1455914465911 10.09047234681 7.3880818392152 8.01304344498 10.504123068592 10.438644153605 10.55537203505 7.9329520733701 5.9829595743184 4.7570922425337 7.7468969907959 9.7951850089418 8.1395906078365 8.9537317292217 7.9113862639128 9.0162872509945 8.6074830196159 8.2037914312483 7.8708312513209 5.5332312878501 6.3819155565544 7.9759362064376 6.3379026749997 5.5550556301434 6.5339247429169 9.2137337236221 7.0952948433702 5.5860737154887 4.9196063826 9.5815814831409 8.1538498854053 8.3043359482168 7.6198624912009 6.097014930558 7.4491898268924 6.1046008683443 6.3764395635198 9.8977968890929 8.4206924471722 7.9284712917675 8.3858057086626 9.8930042429531 7.705842836335 8.6110349222887 5.2718365780237 8.8153085379863 10.122611177287 10.403145685779 7.7656489038372 6.5747042529498 5.1819703626684 4.3309338984127 7.2301362475746 9.3246702293631 7.3257222598225 7.0677228941114 6.0227298501999 7.1061702310336 8.2492399902619 10.496240224662 5.9397137541486 9.2854803198597 10.478293672401 4.5861860489765 8.6528979729806 11.099493685761 9.4263066250483 5.9628102726293 8.2163106495711 8.6656024566913 6.9831702196144 6.3694151655884 5.5627234357073 9.6800377914747 9.5321867196657 5.5991724488433 8.0301169133461 8.2669234296683 6.4890307268865 5.9705636321117 5.2552116119289 9.4212446505324 8.5940963993338 6.6946970426884 7.637800275674 7.3995754393949 7.9052838419888 8.2992102766083 7.5328204474766 7.2054212638134 9.3977305018402 8.8875055035328 5.38913383901 3.9591228926291 8.6184157455697 6.1850938096989 9.1904262669126 8.806761332398 5.8023615598517 8.9631086008442 4.2532828193604 6.6613271016133 3.9076444304847 4.708522279751 8.5392922318584 5.887648148222 8.3944676981622 5.8835036845198 8.7741479242077 8.3763308519965 6.825877508223 8.4955875649319 5.5642690111381 6.3181973760994 7.1897684417443 6.5389867350068 8.0019199043457 6.0829094616128 7.3358387245132 9.0736051863051 5.6606932197237 5.1052081994911 7.8327944780401 7.2055009275922 10.727812854801 6.7343487667296 9.1205720665078 7.1810772008357 9.5408869534833 9.4673186758071 6.1334078560503 4.3424790770818 8.1468985531528 7.2403869244614 7.0909361614225 7.2385577841908 10.582952439941 8.7217166259425 5.504425089099 8.2627557512136 9.6142805911477 8.2046179939353 8.4078774705657 7.5794644772161 7.9939157048669 7.1242782169014 4.3799314958801 7.7298996403729 4.6135942370279 7.8897445441785 7.8812712590839 8.1875467467218 6.3250808515089 7.5072452569159 8.0596710614692 7.890793492942 7.7433386854147 6.3958434976664 5.2000791459339 4.3023552608184 5.3719678978762 7.2780991237342 9.1398615252913 7.3630836058817 6.5061298130241 7.0056189360515 5.7403033604057 11.45627994014 5.6798821803575 10.286611199988 8.8179747443892 4.0859816425996 8.5333759898926 8.4991037577766 7.7627840884681 8.3591862336234 7.3450350642355 6.1585811641138 6.1525170987159 5.7986457568333 7.3849478135417 7.9274211875022 4.2841037950147 5.2725011820396 4.6498487501354 5.7194666577974 5.079548201879 8.7300352315008 6.1581179709784 8.1387559052121 5.0347305779413 5.2540252112608 5.6496846065364 8.0819826965556 4.7068067215171 4.6275439468611 6.8083259827621 5.5553785227035 4.0440457367578 6.0698211183243 9.4433456314785 9.0570726077725 7.1646038354075 4.7973920741815 5.365573556415 4.8210896731751 6.5679244493575 7.210197614325 6.8486811876267 7.0155812908077 6.8930560600076 7.2082678089314 6.2192864879631 6.9121464788443 6.4327948325827 6.964285994563 5.8346035683165 6.7786991652984 7.0024996793513 6.2293183586631 6.6235372063474 6.5368153432534 6.5609585294926 6.7721381021778 6.7856512868705 6.3500964316356 6.6068434795771 4.4510711901028 5.7850939005547 8.6571568402692 4.8286446726608 9.5588866607641 7.0917145568704 6.5418745157418 6.5224487018666 7.0322265071557 5.7042611218964 5.148196791871 5.1218740195291 5.1354845871317 5.6087611630838 9.6031292166273 11.159390090578 10.257135766114 9.3115402337209 5.3388474074715 3.7951281460682 5.6617526543471 6.0950149266235 6.4360718780676 5.7884896714402 6.0325357435581 5.3611811652311 6.3718806864578 7.021241447139 6.6166509686026 6.5953177978751 6.5344380017114 6.5398775998786 6.1636096019014 5.4875280857957 6.5177950454571 6.4771047677856 4.8890469175985 3.7190145930333 3.4340644617256 4.8401568464414 4.2722299634903 6.8269504745502 6.2920685532019 7.537592197225 6.4958233952524 10.933646141314 10.65114668082 4.2950392803564 4.7669061155316 8.1305608664043 5.7546420937502 4.1224979624027 4.2128284252738 5.4511853146323 7.1080170439668 10.012461614994 6.8932287704928 7.3524712108569 5.6175456067377 5.6633912128885 10.309784334017 5.1317637010593 7.3084754027058 11.485590878458 5.46066741724 4.5249587177988 8.1711261045174 8.4614233523184 5.4604631218156 4.9078561334013 4.735787799702 6.6041102111642 3.8935249738897 5.3497175349343 3.8210941794048 3.8125635896404 4.3155811273524 9.1095049425369 5.1234236292128 5.8527239813445 4.9594177903022 5.4559883076363 4.7158272236132 6.0055049718465 9.1007372562241 3.9051223427121 6.369040645397 3.5868087981151 4.2586476920855 5.4395070752954 4.6062117524687 4.0693055892272 4.4096377239305 4.6272857890401 4.5150022061438 5.1765247532557 4.096227800571 8.2026553256227 5.333640097492 3.9485128839217 4.3518873216492 5.0830690169211 4.9657532166804 7.4619140192582 7.3783234589939 7.9238600418071 7.8239683308326 6.8495072738855 7.3914188188587 6.265775448848 6.6312535955782 7.6070700026847 7.2437675415867 5.630299936758 6.3994125243111 6.3514268529598 7.6235188825898 6.7990064952728 3.636364918924 5.2745715869671 5.8536954027638 4.7580201455613 4.6580435408701 4.1636629661398 4.3068224099622 4.0919737163444 4.9917066417667 4.0735376790552 4.8138123578147 5.5402670733389 10.517447605594 4.6240663138817 5.5090921848084 5.386668144725 9.4263496628571 7.7493190834018 4.0072143838767 3.8975682244041 3.6763747499425 4.6551964358775 5.2280159870786 11.228626228528 3.9379768676562 4.4135498661514 4.6762093148692 3.5064210828892 4.6449013168174 5.7377160740643 5.044400295032 5.0063935820115 4.3283321217189 5.1751748533929 4.8301671434396 4.1570281300544 5.0658879186147 3.6281956790291 4.01489905081 4.7337454120892 4.3153570110885 3.5595558160917 3.8985662688223 3.6503079294096 3.8199091406804 3.7719988505036 3.7550589748601 3.7753150343908 4.6900739837207 4.4528316707453 5.5460357384829 5.7632697626718 3.9776878053679 3.6069698329942 3.5147260977701 4.4742634133893 3.6334004241559 3.6689406178212 3.7163207237009 3.7242622297588 3.7159783217537 4.2814697828115 3.9225214699195 4.6964474758427 3.5240977687389 3.4866883180457 4.3447600524375 4.2397304848696 3.4570456482069 3.4491165299953 3.7048886683858 3.7227980982122 3.6379352495563 3.7225405061532 3.5578811720487 3.7370349365867 3.8734087531323 3.6364030774513 4.0932179771822 3.7168507212173 3.7474653436331 3.5017371555902 4.4263554008192 3.4967611338393 3.5798163816505 3.5567279037009 3.4539844920236 3.4467846777459 3.5601639167359 3.6105628574489 3.8494378927452 3.7143107907682 4.4802926759346 3.5645372654469 4.0657824344657 3.4380357577475 3.5270912118388 3.8479165624624 4.1143912029452 3.5471464052185 3.5206922885423 3.4617826131483 4.8896079481069 3.955207291973 4.0069542975853 4.0120965444765 3.5738306730036 3.5012450988868 3.4567702810797 3.5013034602224 4.2416960203029 3.6131300567078 3.5918874236599 3.6798122950452 4.4417563269501 3.9870470353671 4.1024722783247 3.4377200183547 3.524400889395 4.4543347176371 4.1533939798226 3.7480201834644 3.6299494057552 3.8574706079359 3.4363694592408 3.6971022729294 3.7394239610914 4.3720489385104 3.6153025486303 3.6867323891904 4.1567062921581 3.6360260953519 4.1649576693173 3.7427367300624 3.7135962829669 4.3717558569669 4.512400048127 4.3093964523138 3.6766781107204 3.9144463898447 3.5515487935014 3.4883426709978 3.5164097488486 3.5598284997747 3.659997055211 4.2375703286092 3.9728952861207 3.9016606728148 3.9390929298525 4.1257818307098 3.8763583911128 4.4232338832445 4.4436727334853 4.405211381868 3.6559669578297 3.6605420285678 3.5895735201674 3.7399369129373 4.0466942351167 3.5033579089537 3.6041145227921 3.8714814378498 3.6392794240486 3.7665737416585 3.6844789892634 3.9198049875838 3.9700400570021 4.0046580747374 3.8728658738674 4.1036543484634 4.1887084815796 4.089949588071 4.0795081919407 4.012112153004 4.1512934934208 4.1906625048456 4.1452003316551 4.0961697778654 3.8331101154904 3.6656287190948 4.288753522715 3.8692668525909 3.7482866902519 3.8681897350184 3.9646234302086 4.0941459027509 3.8509916620596 3.9634568415065 4.152965215185 4.111455524143 4.2005005764341 4.1666551008911 4.0059931761264 4.2158932568982 4.1584353424282 
SCALARS 200.00_0.35 double 1
LOOKUP_TABLE default