# vtk DataFile Version 3.0
d-2__ created by libgimli-v1.1.0
ASCII
DATASET UNSTRUCTURED_GRID
POINTS 570 double
14.5	0	0
14.25	0	0
14.386963504964	-0.201738469428	0
22.399299936458	-0.310870122736	0
22.129824335287	-0.229914148082	0
22.126320781198	-0.518791771445	0
8.472303742627	-0.591754876635	0
8.780507935475	-0.76092407121	0
8.82173151259	-0.349253271447	0
18.663262297679	-0.667179415955	0
18.934786529245	-0.453308328646	0
18.636898038907	-0.29588182328	0
4.016904362632	-0.85330676142	0
4.076038737616	-0.331410355179	0
3.713721571226	-0.470767763626	0
1.89953779852	-0.269343012166	0
1.633800503821	-0.203067612233	0
1.644492760828	-0.441295523531	0
4.368408037607	-0.250833874131	0
4.337474161742	-0.544420985055	0
4.67745607622	-0.378433532554	0
1.406172533733	-0.772361039307	0
1.913288206557	-1.218576310882	0
1.90687689783	-0.651895683444	0
2.5	0	0
2.25	0	0
2.347047126858	-0.185539804102	0
1.374000926997	-0.300418771701	0
1.25	0	0
1.114902662369	-0.201591505098	0
1.067401015567	-0.470108640981	0
5.75	0	0
5.699780065382	-0.324747799653	0
5.924584257371	-0.172748359932	0
0.883560935405	-0.231136840652	0
1	0	0
9	0	0
9.117836368049	-0.253904480787	0
2.625577516194	-0.346770599322	0
17.859079774019	-0.943547525024	0
17.535029634209	-1.703182852412	0
18.338018094476	-1.366069799339	0
19.932263871771	-0.826489183604	0
19.881635677668	-0.346204516721	0
19.622287080959	-0.573770479943	0
1.5	0	0
1.75	0	0
23.25	0	0
23	0	0
23.109690227386	-0.220340974338	0
2.75	0	0
2.142562771237	-0.172460438312	0
2	0	0
23.332392704446	-0.202507275941	0
23.5	0	0
19	0	0
18.75	0	0
18.888143078348	-0.195773419804	0
2.90152418742	-0.185685383897	0
7.612175045312	-0.180627982114	0
7.527150943175	-0.401430797998	0
7.881917737402	-0.30462800112	0
25.630635194756	-0.512020961038	0
25.243766894324	-0.80097755811	0
25.758031115142	-0.952821630144	0
3	0	0
28.84859809239	-0.201276387394	0
29	0	0
28.75	0	0
4	0	0
3.835807353334	-0.199536243303	0
3.106904732949	-0.178783649348	0
29.25	0	0
29.092446172194	-0.305987136665	0
13.5	0	0
13.667851890428	-0.185102765244	0
13.75	0	0
3.75	0	0
14.407363653886	-0.441423674912	0
14.125469935998	-0.279652141152	0
4.25	0	0
5.061980176718	-0.407989246181	0
5.335512032876	-0.269401530321	0
5.113979852892	-0.173834924157	0
11.882046000841	-0.812345557852	0
12.478640631525	-1.146569360669	0
12.244190771573	-0.565936619511	0
3.633270844505	-0.195395238442	0
14	0	0
18.378272976509	-0.514977451159	0
5.5	0	0
9.619519097921	-1.16461851757	0
10.030576753886	-1.587265312651	0
9.961661342999	-1.070235523667	0
5.25	0	0
5	0	0
13.157975569138	-0.830425793913	0
13.83833027638	-1.238601004239	0
13.671302359608	-0.710707966059	0
11.325917093147	-0.8366783502	0
11.612143285947	-0.506264798476	0
6	0	0
7	0	0
6.83842404292	-0.188923754932	0
7.11236984822	-0.391746146843	0
6.631875629497	-0.169178192832	0
6.75	0	0
3.21002197083	-0.595267231049	0
3.445510026908	-0.608065324465	0
3.362318141622	-0.306501255187	0
6.120159502895	-0.164221934939	0
4.538525595924	-0.906226152762	0
13.233775457127	-1.737244787017	0
4.5	0	0
16.138065841822	-0.472802517973	0
16.126746690205	-0.221608117926	0
15.859319180798	-0.326402762318	0
26.080401003391	-0.227842452866	0
26.25	0	0
26	0	0
3.019224421113	-0.401469974918	0
8.234901607028	-0.35771789179	0
8.518285578354	-0.242327591839	0
8.328777073389	-0.153008859619	0
7.25	0	0
7.400656881666	-0.195280611572	0
7.5	0	0
5.385509485898	-0.709154879541	0
5.948697127931	-0.745234910621	0
8.75	0	0
8.5	0	0
8.25	0	0
2.214249105773	-0.404278959534	0
2.896561357202	-0.792481120253	0
9.25	0	0
4.920911116561	-0.192028847294	0
9.651670336652	-0.200847798694	0
9.849824537955	-0.19917205686	0
9.75	0	0
10.095049354068	-0.315754204277	0
10	0	0
3.25	0	0
6.738406513564	-0.710129601907	0
7.121614580011	-0.943026074581	0
11.345829942703	-0.314788260019	0
11.25	0	0
11.104427225455	-0.188863495516	0
6.052412255932	-0.372556729023	0
6.373371846535	-0.274163514827	0
10.25	0	0
10.380281579003	-0.241092027437	0
10.5	0	0
10.75	0	0
10.909079077441	-0.189427130481	0
11	0	0
6.25	0	0
6.5	0	0
4.75	0	0
3.5	0	0
10.672815698565	-0.318467932684	0
10.772487906066	-0.787092734739	0
11.020900486567	-0.439266778492	0
8	0	0
7.75	0	0
11.5	0	0
11.619450354736	-0.231443672836	0
11.75	0	0
8.139317726831	-0.163309591658	0
12.25	0	0
12.158949464947	-0.235415698299	0
12.412455385193	-0.275030800337	0
12.929165084344	-0.221336108042	0
12.686337592177	-0.258437422252	0
12.900449535554	-0.462768612232	0
12.5	0	0
9.405755833308	-0.325979504745	0
9.111697192308	-0.594170467817	0
9.457257345083	-0.753685223931	0
18.101369157139	-0.618560521812	0
18.336839281097	-0.861122419318	0
10.385948631267	-0.570640149046	0
9.5	0	0
13.411260455969	-0.342646276848	0
12.643108055516	-0.590179775368	0
13.137744715761	-0.195204172124	0
13	0	0
21.25	0	0
21.358341816502	-0.326561417551	0
21.5	0	0
13.816492716597	-0.40394453634	0
20.25	0	0
20.423452336785	-0.313445603959	0
20.5	0	0
17.789350393153	-0.390447709085	0
17.987794057246	-0.401472255242	0
17.881276545163	-0.206424156589	0
19.564465692234	-0.270867872644	0
19.290725118801	-0.49926248604	0
16.392319441256	-0.29915360323	0
19.443730892406	-0.923508713428	0
20.457987075478	-0.803203365193	0
20.167450719332	-0.505159975143	0
0.103762538371	-0.253013629949	0
0.267057015134	-0.483604909932	0
0.374713194419	-0.2320817565	0
13.25	0	0
17.415572543912	-0.230682214253	0
17.5	0	0
17.25	0	0
18.108153655084	-0.208141099276	0
18.25	0	0
18	0	0
15.75	0	0
15.544586046819	-0.246453491997	0
15.122708481244	-0.193620038745	0
15.25	0	0
15	0	0
19.75	0	0
24.149237782749	-0.319013340846	0
23.842766599446	-0.577371105011	0
24.183995039967	-0.73159476451	0
13.871646321742	-0.17394291424	0
23.862588150518	-0.245417872715	0
16.84024277193	-0.203626765466	0
16.704049384397	-0.435508179396	0
17.112673188265	-0.38804641709	0
24.75	0	0
24.832880292394	-0.290571430318	0
25	0	0
16.40158555625	-0.755912194683	0
16.850299990829	-0.757941865332	0
17.75	0	0
23.567455674596	-0.325197491724	0
16.25	0	0
16	0	0
22.645812614293	-0.197864648876	0
22.75	0	0
22.5	0	0
16.75	0	0
17	0	0
24	0	0
26.914424714815	-0.337869958787	0
26.621963281699	-0.624626679172	0
26.977877660759	-0.778408201088	0
26.622424322919	-0.264588309935	0
19.34462271879	-0.199329831305	0
19.25	0	0
19.118057075065	-0.225686869553	0
19.5	0	0
26.75	0	0
27	0	0
27.5	0	0
27.604422363523	-0.298869962794	0
27.75	0	0
17.650384190064	-0.227839036584	0
18.343198956448	-0.236734208617	0
18.5	0	0
24.25	0	0
20.143897114391	-0.233773711865	0
25.5	0	0
25.25	0	0
25.344389320279	-0.31693710653	0
21.059546193318	-0.24845941382	0
20	0	0
25.842927934822	-0.248287716678	0
25.75	0	0
25.613904645132	-0.216025146631	0
21	0	0
11.763551406169	-1.481607093928	0
30.981104050195	-0.5526690913	0
30.873880294509	-0.217692518774	0
30.706626759758	-0.34945139905	0
20.75	0	0
20.85240828135	-0.178025243856	0
23.75	0	0
20.66289882074	-0.189089155251	0
30.204950808504	-0.791758966623	0
30.715535843381	-1.149995259266	0
30.543724897762	-0.572259098027	0
30	0	0
30.180216671806	-0.343473673313	0
30.25	0	0
23.229584388362	-0.458653998547	0
29.5	0	0
29.623391954444	-0.322069028408	0
29.75	0	0
21.618913855927	-0.233585823579	0
21.75	0	0
29.348490380579	-0.521100538161	0
29.36294710412	-0.230601226356	0
22	0	0
22.25	0	0
28.25	0	0
28	0	0
28.129259193923	-0.314252106503	0
28.44374413871	-0.484576386004	0
28.100199615755	-0.812038297775	0
28.649230646972	-0.871769248311	0
28.618403654115	-0.227691192115	0
28.5	0	0
28.387848605749	-0.205892081491	0
29.054768525933	-0.708603081552	0
29.344906532636	-0.846887322836	0
26.327430876245	-0.35930637997	0
10.349120516034	-1.04150119828	0
10.894920134778	-1.514321070539	0
24.59640839418	-0.191760546865	0
12.75	0	0
24.5	0	0
13.102881121377	-0.411296235356	0
25.099388239946	-0.214879887129	0
25.97986022697	-0.52841375324	0
24.398993403151	-0.196312410538	0
17.860840746535	-0.577367743328	0
17.566481510048	-0.529340016102	0
26.5	0	0
16.637148248735	-0.188015807345	0
18.183918302467	-0.396443618316	0
27.159348252167	-0.205297590358	0
27.357530053515	-0.198815038154	0
27.25	0	0
15.060354649709	-1.112587998155	0
15.51532665618	-1.043792149387	0
15.178150912169	-0.713100616689	0
10.051363365948	-0.719159376333	0
14.661248691948	-0.27865166374	0
14.75	0	0
27.868836823455	-0.217301839861	0
31	0	0
30.75	0	0
-0.020273477909	-1.415389842481	0
1.054972770973	-1.487485199502	0
0.512583677021	-1.0438154777	0
0.75	0	0
2.361419414365	-0.794513604096	0
29.890297721653	-0.2433406165	0
30.473599299501	-0.238575611274	0
30.5	0	0
30.660802173874	-0.161931182737	0
28.783812899585	-0.467926883932	0
4.937022539393	-0.72440615077	0
6.696914540879	-0.380672503721	0
7.434272221796	-0.695675918868	0
15.339606453815	-0.166204802571	0
15.281953315711	-0.388999642276	0
11.893544445085	-0.335972898148	0
12	0	0
9.753796445798	-0.478866225926	0
7.720012958977	-0.638314519759	0
21.871398197179	-0.313006985103	0
21.615176662754	-0.521922347305	0
21.856785525528	-0.665128848631	0
20.792152536902	-0.448319093295	0
21.109577821412	-0.527879642114	0
21.360297691811	-0.734200004244	0
15.547854961707	-0.580173571081	0
24.496861814148	-0.467031445896	0
25.067351422649	-0.463427753535	0
24.81263825963	-0.684738154192	0
22.865620821195	-0.218348593093	0
23.443705587002	-0.773171720633	0
27.277617447467	-0.489224417775	0
27.863714790534	-0.471681393437	0
26.239117668995	-0.863279739365	0
29.896797054636	-0.547765129844	0
29.612773839625	-0.699757135752	0
29.867172666547	-0.87444432816	0
29.610354212963	-1.521444655905	0
29.59548165142	-1.071765512911	0
29.115129171034	-1.220660174798	0
31.345359428525	-0.458952144926	0
31.144859415042	-0.241304201582	0
15.919565295974	-0.746550096707	0
16.063006820294	-1.289595303187	0
16.5	0	0
14.900855313538	-0.178071167744	0
14.161016743654	-0.72559708689	0
19.011498044983	-0.834202892304	0
16.760433281999	-1.263698818643	0
17.280361389946	-0.931704507314	0
-0.627742252535	-0.296285438777	0
-1	0	0
-1	-0.5	0
0.625738545692	-0.228405936136	0
0.5	0	0
3.313957665883	-0.865581185485	0
3.619156095452	-0.800599314657	0
[...]
CELL_DATA 986
SCALARS 100.00_0.11 double 1
LOOKUP_TABLE default
7.956459264777 7.7768037692186 7.7571773809722 6.4590263757649 5.7929335581279 8.1449509913588 7.1230810706644 5.68008965622 8.9039292636048 7.6091379272365 7.2176490353505 7.3696873406283 7.3207546766513 9.1211536686826 8.7185571789024 7.6028915223817 4.5156325536044 7.2960716388617 8.8642682056014 8.5228604369868 8.4554270802618 8.9883832375309 8.2527939078233 8.3502953452966 8.1788265104031 7.8655182575988 8.4123489495768 5.8561977618172 7.7286242760864 7.7656258809593 6.8555103159274 7.5143659565212 7.6838738291055 8.4378612186825 6.5495379319992 8.0598991399449 7.7600341051781 7.4299984365512 5.6001114451368 6.3672795636301 8.9534217886794 6.2371233818933 7.6832673136683 4.7432026330474 7.3579921865884 7.3148594364752 5.8943655956592 6.4904629737005 7.2058894089264 7.8634018030917 7.2127832219753 6.7886824523127 5.6122337449431 7.6040804095789 6.2257539886324 7.6003085549684 4.5915300603231 8.3538618176117 8.2439934383335 6.873277884931 7.6511838499683 7.1875236754515 9.6994145984144 9.1796596217231 9.4439335671727 8.8266877947843 6.4599834321728 6.0654896454179 9.8263909199823 6.8171307468471 10.295276758847 9.542928276433 7.5563945583335 8.8320055648085 8.6009971423102 6.3666071552746 8.9864060593451 7.8047197107581 9.0307489804116 8.9780752147624 7.4275003193799 5.6177834647302 8.034758020438 7.1560296827992 8.7651643294097 9.0057454652628 7.12350297726 8.5702706585116 8.4884108324204 9.5414883475338 7.7621098391558 9.2850062144333 7.0749971960241 7.8790555111208 7.6533192581667 9.3492781086449 8.4992838910462 8.457783448929 9.3861020040371 8.0063212221578 8.4138465203381 8.5378130024153 7.8174802041803 8.570394704868 6.6533365929815 5.9928085885322 8.1777618112973 7.6757858921474 7.1791392860069 8.0865778776307 7.1751640365364 8.4542367073903 8.0880718135152 7.5507810888096 7.7520462904317 9.2726892968465 8.2816714413474 8.3324037054246 7.7316659122352 8.3965003361265 6.6390164731905 8.7075851716883 7.4456653338862 6.7183871205322 7.598405239309 7.952145721161 6.72137859095 6.3918023774409 8.2518713825056 8.873527915732 8.3223188503106 8.6865235669486 8.7080250277742 8.5868473671658 6.0925380533905 7.9583298101713 6.8202209782726 8.7882877326265 8.143235364717 7.2061359092637 8.2336444604016 6.9438882780254 8.6376166092347 8.038007585069 10.478741043886 9.3673336876636 7.351946587902 5.6689956972697 7.3028423577988 6.3107203830893 8.6487213789004 9.0954539137767 6.835037441013 8.4285438314588 7.5974903638731 9.8822660006623 8.2952431343314 7.1470141162712 6.7655070941326 6.7985896166505 9.235012287141 7.4576493413194 7.4373677444099 9.6284227948766 8.0275329692457 7.7062842532919 5.2549272448698 6.75546654402 9.0818784782451 7.9531847021772 9.1951038265635 8.6145648049116 5.5153814090826 6.8280860777755 7.7695635625069 8.0270153678965 8.4940867754387 7.9361447307328 7.0377669068936 7.4870206752632 8.3839530462398 7.5742561377177 7.9940500403006 6.0954197134458 6.2912796804448 8.5604945781718 7.8195710747047 8.3405697847745 7.0745270529243 6.048038392754 6.4001388201476 5.4331308607596 7.6949663993636 5.7707171399587 7.7044213076537 7.9286849081502 5.5095498815547 9.1213153069553 7.6588755416251 7.6100472573992 7.749952644546 7.3096941944214 7.8624779226529 7.2975481879746 8.2030729689022 7.0501970462795 7.2997573740014 7.6670735294052 7.105466476519 7.8521269486159 7.4704472505194 8.7749517645982 7.0676529482298 7.2901626245591 6.9291742846124 7.0356007115979 4.8787292736853 7.175443357362 5.5665735547088 6.9995389520694 8.7900230360525 7.3061072590415 8.1639159186497 9.4285391444148 7.6311015148079 8.8835721822009 7.7426084277775 7.9140391984684 7.5196470231184 8.8293852192202 7.5770925142641 4.9172772699004 7.255708800256 7.3807965243633 7.0061820979731 7.9138060374528 7.9228864299048 6.0743044420296 7.5910492900456 7.6225662365707 6.8094604143907 6.4557911910865 9.0122262155692 7.3429153684631 7.2711741451198 8.0165878123671 6.3036002883962 7.3411258820837 7.0174922421754 7.0263264993869 6.3217193523432 7.0693468475431 5.8235963120209 7.5656712037591 9.4894027975793 6.2780374577396 8.0427003925068 8.2032894295592 8.6883271375663 6.4200640225045 7.2075332698543 7.1539192379327 8.1542328600128 7.6625285147006 6.5931233834146 10.029602185088 7.0959396861424 8.3971088676486 6.8520849052979 6.6378314115971 7.2161478106348 9.1014514226461 7.3970556857117 7.4340377564805 9.2025862146989 9.5123340240957 7.1445518475927 7.8002032454019 7.9910217583148 7.612229372151 6.9631476344416 8.0182023237235 8.8569664826832 8.4111727050565 6.3330193301768 8.5278789272543 8.0799269525424 8.7599927484535 8.9724386606265 8.3173981654242 7.8051249719944 7.376769622134 6.8404402439193 8.2487089740178 7.5873763774056 9.0870680865431 7.3500577221563 8.4980223404506 9.4118429367269 8.0430004232986 6.4020636152046 8.4097932883381 9.2263198687947 8.4766132567314 5.9694286588737 6.9318727529776 7.8155647317496 9.1337699140703 7.1457590300387 7.7239531468975 7.3102491376988 7.3773310242975 6.9267117500476 7.0908929862712 7.4623884180947 6.7087503657575 7.9045364642026 6.558921682771 6.7217817367372 7.7863117428378 7.1504163231364 7.7341649061138 6.9639778898196 6.7277463078516 6.9447170495657 7.2481937701618 8.3734032479413 6.0997357928654 5.7563549217037 4.6491812068001 6.463753143582 6.3367771249077 7.0324212187204 7.5761289928783 6.864048314172 7.4493169787159 6.7895065500108 7.6748515486141 6.8429879847701 8.2149750535021 4.9143828274199 5.3160166630612 9.7284717266406 8.236431120949 8.3957872715999 7.8713638691867 8.9381506511339 9.7140976761742 7.818959011123 6.7008272466352 7.8333165862444 5.9605588860879 7.4801755662513 5.4428214065871 6.604105492282 5.9479655080761 5.6581482763596 6.8067344468052 6.10406725985 6.8987148838771 6.5124630547832 4.964334261553 6.7312808221827 7.1062981812768 7.9298479160238 6.0792142833406 5.5351311620166 5.0488257143541 6.9356189389257 8.5186445542031 8.7306101680079 6.8386321416891 6.1327971124985 5.5282189911216 6.5280482642172 7.2389010168063 6.2996706426498 9.4266736615502 9.1682014382986 6.0515468953342 5.1468930280975 6.8391922435463 7.6228736848331 7.6992325502284 8.929053919494 8.9607314784707 7.3766563869214 8.1196392446118 6.3421987608985 8.8144366393779 7.4321399429441 7.209312625425 5.7499792101923 8.191200149169 7.2023532304763 8.1105103979729 6.6978488441009 8.2616423890352 7.8198689877351 7.4501075899165 8.1911257014205 8.6220829551814 7.8406002956994 6.9681276997181 5.6015352521231 9.1007855282297 5.8292278968331 8.867132029123 8.4501276700119 7.1084870627703 9.2500081699903 7.701714852879 7.5548596266935 6.5335965046202 7.2404515188355 6.811225786518 6.1235946844976 6.2404868683003 5.2674174978386 6.5129215213825 5.5799970451527 7.9225330910569 7.4924820766727 6.1815718458747 6.4611745156164 6.8414372475614 5.776786132146 5.8148080043172 6.6793787420368 6.1495377049313 6.5727817522008 8.0865660446274 7.6158203959438 7.1074751732923 6.2629454593616 6.9840713338247 5.038672267512 6.5834725070421 4.8389870657914 6.6491588662655 5.1016528732664 6.3531674523602 7.5860594819456 7.3687309603832 5.2717411845859 7.0355534601548 4.4601655349269 8.3293125356663 6.6246240363315 7.1654231015675 9.0338033564376 8.4051147175381 8.0395013310115 6.0666110021827 5.2946880490226 4.1762172458248 6.6322113297862 8.4935996116817 7.0305994608226 7.1194149249398 6.734602894575 6.8969966361061 7.1659028278984 6.5572197724412 6.2503307564398 4.5455879429595 5.4451633022099 6.1373253828229 5.1130470668314 4.5884625311127 5.2036313069091 7.5283768771708 6.0262149373758 4.5657323016846 4.1493428471735 8.1598287734316 7.1085793290148 6.5352606330988 5.9969170210549 5.0325307714214 5.8712128595246 4.9981360924523 5.4297940801857 9.2932554000389 7.7106838640619 6.5784605687009 6.9320156124024 8.1482943336743 6.6588810007991 7.4891964345678 4.3114553302177 7.5182409804372 8.4885710201902 8.3730192093481 6.6082684395423 5.6380620864869 4.5969284615994 3.8137828495725 5.9810447608397 7.6367166232843 6.23643999778 6.2661896005344 5.1673390454716 5.9182594167812 6.9622058291257 8.3949728799805 5.1492151546003 7.4405444371624 8.2291358599348 4.005057979338 7.2381289247109 10.496311963317 8.4848187598154 5.0439341773213 6.8097661751159 6.7101601960753 5.7400004608356 5.3756185422316 4.7765177436546 7.7675726514397 7.7732599511442 4.7438731155127 6.7624738225076 6.4626360864162 5.4237865547503 5.0183277739796 4.5196618385561 7.6539677466746 7.0751057250451 6.4898945416463 6.0456099675827 6.2729313100056 6.4421946371323 6.9235084147798 5.9642836199385 6.2039174212292 7.5627035482548 7.2890217545143 4.8183217293779 3.580315969239 7.1058134604913 5.1912866419934 7.6295781580083 7.7783766583816 5.0385974989928 7.4515818959101 3.7948674648119 5.1975711081399 3.5027042093221 4.2294838316693 7.8091251984888 5.0740706824646 6.5905000945111 5.0215780820308 6.7841226470862 6.5655639126407 5.5935319848444 6.6246267829361 4.8294057389727 5.3028221440488 5.6197911450412 5.2208125626848 6.6927330239263 5.2237926331188 6.4433030887565 8.532431352732 4.8665760589783 4.5353419671527 6.1627064847852 5.7567155854216 8.5388084834296 5.4234094284706 7.4433127309869 6.0631926057771 7.9787994286889 7.2802764002425 4.9095334641684 3.8346428396071 6.7486512739125 6.165776954983 6.0018315243632 6.0641244528729 8.5707905660797 7.068645110454 4.794070785869 7.0540983243664 7.7825042646445 6.8189052694003 6.800655490014 6.2220846624633 6.7112192568556 6.0425052477426 3.9263585694621 6.2291855880424 3.9443149922099 7.2008578381656 6.313322273703 6.4614979558959 5.3195678023287 6.019385877933 6.4265444853625 6.2684687276128 6.2621461753356 5.159119703478 4.310914481771 3.6851479002508 4.5665786523305 6.0660591782176 7.9154520364146 6.6616516391421 5.9430752980367 5.6585463580798 4.7512940578358 8.5551684411806 4.9416155438478 8.3728574619569 7.1879836088235 3.6214322729838 6.7646092207818 7.9344994127769 6.3954203330033 7.0097037297932 6.2417738782115 5.2083032832548 5.2427914460825 4.9602336794132 6.2948582391663 6.2935323241148 3.734267000872 4.4510498503902 3.9333795184662 4.8085723304075 4.2984906627999 7.2762406900083 5.1998406547439 7.6579875407295 4.3212259265227 4.6074023352582 4.9205958600609 6.6226510953314 4.1891662831112 4.0957160870051 5.5223905412117 4.7734899410371 3.6150243297419 5.2790735003283 8.3361484773598 7.3676900645031 6.026329329242 4.2238805296889 4.5649733366552 4.2937817239277 6.2130998343523 5.975734479978 6.0612209911668 5.7598806148154 6.8152709364295 6.4157987499394 4.9968436735618 6.5365651319183 5.1831876632275 6.41241662725 5.0611006314755 6.1708057236546 6.6057853473885 5.6181499150803 6.24396601539 6.013603963103 6.2409149070865 6.4881264990301 6.6205649932162 5.8364220009554 6.3187182262509 3.9874090133629 5.1437697010286 6.7508903014555 4.224201091484 7.7258106061042 6.0779043955896 5.5676841189347 5.5916512410857 5.8415640504879 4.8688972131175 4.5487705684092 4.4390110833097 4.5482050161722 4.6475344662982 7.6466884592517 8.1750111659341 8.0665854602304 8.8677330955371 4.4347738459484 3.5174258690791 4.8268729927547 5.2257548137701 5.3836216781481 5.0128640778976 5.0283506808827 4.6737357417038 5.5048618354761 5.6224428794856 5.4933457625493 5.4004963167811 5.5523075291885 5.5295180725607 5.1871305883638 4.7524700120806 6.1542428736791 6.0662783663448 4.2387544498331 3.4333651750104 3.2423771380965 4.1338491670201 3.8563985996391 6.0072886885777 5.3292060269745 6.2502979745746 5.6228618393933 9.2193974454704 9.0650159852395 3.8238763447145 4.1928358414526 7.0793588535268 5.0740564395925 3.6711677232936 3.7880867109875 4.7233635970033 6.6048064291054 7.7238438129544 5.9393124215617 6.7538231078367 4.8248472197344 4.9150978209778 7.7565859788956 4.599141971717 5.9632874528446 8.5017487866528 4.4065108086941 4.0231601358664 6.4302690409751 6.7239803173243 4.6888883634317 4.2671492462143 4.0512450167686 5.6505412545127 3.8205962301449 4.5086842088654 3.4912357241361 3.3911661258775 3.8091436177247 8.0872242477118 4.4638292067341 5.1105819891745 4.3384614944979 4.8035228146404 4.0996394443353 5.1018506027231 7.1209383470471 3.5245646471932 5.718071857806 3.2842625499165 3.7643844133674 4.7839689016428 4.0270718674776 3.69352999812 3.8155728114211 4.128550867886 3.8696235222442 4.2659059336256 3.6715699675239 6.3241714323218 4.7223719115389 3.5945635056758 3.815402701838 4.4029175336085 4.2426618310115 6.024082095371 6.0847839148708 6.3308008808368 6.2143615773685 5.5966799959713 5.9388138098256 5.2340260104141 5.4824588270944 6.1071098185551 5.8668442375401 4.8727564625374 5.3082399307733 5.3404870246932 6.1437884958362 5.6385110461529 3.3585964274642 4.3738731344025 4.9384093266072 4.1529911272551 3.9779707194773 3.7672845077332 3.8886431695755 3.6472234784779 4.2652923297711 3.5825869588326 4.2017186374788 4.5286166423289 8.4599287321236 4.0993765638472 4.7477863946538 4.6939927898802 8.0585911505957 6.4203489146363 3.5934242907425 3.556786754991 3.3023296851532 4.0705085608161 4.6029427122502 9.5938073630368 3.5975915884522 3.8898536820211 4.1871271189226 3.2653105662135 4.2624142100378 4.9469661232795 4.4741441243091 4.3730572870882 3.8586095808185 4.4894860051366 4.0959280621018 3.6613148180494 4.3887405218833 3.3518789178703 3.6110773479425 4.1411657206292 4.0695678583611 3.2306410947322 3.5464963280594 3.3183062252372 3.4467644313267 3.4021194665811 3.3126894374177 3.3765719517203 4.0802056014905 3.9401565600486 4.9690799483077 5.202868207468 3.5517118187888 3.3524147730969 3.2585332338915 4.1911846612548 3.386754633896 3.3718117319221 3.3505516735887 3.3655449318403 3.4200505674028 3.7783695505919 3.5193166463268 4.2016697034318 3.1837036810057 3.3396291821419 3.8608432541766 3.7718539050495 3.2375040401794 3.2358472557892 3.3236072554112 3.4281527470671 3.3338366992706 3.3708271371894 3.304403813801 3.4140533861977 3.4783995894989 3.3188117613761 3.6942212882489 3.3969570722967 3.4539491590905 3.2526081361967 4.2168609502842 3.2016368888653 3.3989037693599 3.2737535890141 3.2366505980039 3.2672449025011 3.2961361411607 3.4251349954298 3.5173107288286 3.3952402645671 3.9803323483185 3.3101375359852 3.654699817732 3.1843414679352 3.2309054388633 3.4882417499189 4.1097316512732 3.4591326547263 3.3784430549401 3.2043010306383 4.2566035029306 3.5225399466725 4.1490952502575 3.6770991672642 3.3443922365759 3.343990262841 3.2916487872725 3.2771741720399 3.8420147952543 3.5312826344876 3.5257926365138 3.6051655527408 3.8718709073712 3.6740021460803 3.8750001432736 3.2086847784608 3.4241796162564 4.4888038856244 4.0642250065304 3.7906276354629 3.4530707462001 3.9897416458009 3.2190462074127 3.7087085890391 3.5130294604271 4.1544711904747 3.4999586122088 3.6716901347388 4.2258473855187 3.5760990194895 4.1623033212461 3.7424355874712 3.7510326763942 4.0451731009886 4.1474557957031 4.1845518988961 3.6545070913107 3.9930900370568 3.42893358026 3.3694863855376 3.3909232074101 3.4602719099706 3.6653973365599 4.078476871994 4.1641445950784 4.0463299190936 3.7249465197245 4.0175348063972 3.9912102153362 4.2879492546869 4.5500843141054 4.3350470044905 3.6525446838054 3.5511812550816 3.5318193938787 3.7958982864951 3.9239495278279 3.3505032274413 3.5466039034481 3.8330530017049 3.5414240857735 3.747930821455 3.5537959098474 3.9529652185025 3.984321773089 4.1267807460772 3.9476545911454 4.3564611599218 4.3326443046478 4.1986559517875 4.148895988985 4.1046907709394 4.3002707422742 4.3086349137051 4.3218482370024 4.276611658693 3.8247925436696 3.5521398744956 4.3858538613529 3.9644340728427 3.7762756063714 3.9985439920874 4.1408961121517 4.3101825802865 3.9381925933308 4.1226771044 4.4218876645218 4.3562815227568 4.3394909081185 4.4126806045698 4.0860385081668 4.4071204826897 4.3666579326152 
SCALARS 200.00_0.28 double 1
LOOKUP_TABLE default