# vtk DataFile Version 3.0
d-2__ created by libgimli-v1.1.0
ASCII
DATASET UNSTRUCTURED_GRID
POINTS 570 double
14.5	0	0
14.25	0	0
14.386963504964	-0.201738469428	0
22.399299936458	-0.310870122736	0
22.129824335287	-0.229914148082	0
22.126320781198	-0.518791771445	0
8.472303742627	-0.591754876635	0
8.780507935475	-0.76092407121	0
8.82173151259	-0.349253271447	0
18.663262297679	-0.667179415955	0
18.934786529245	-0.453308328646	0
18.636898038907	-0.29588182328	0
4.016904362632	-0.85330676142	0
4.076038737616	-0.331410355179	0
3.713721571226	-0.470767763626	0
1.89953779852	-0.269343012166	0
1.633800503821	-0.203067612233	0
1.644492760828	-0.441295523531	0
4.368408037607	-0.250833874131	0
4.337474161742	-0.544420985055	0
4.67745607622	-0.378433532554	0
1.406172533733	-0.772361039307	0
1.913288206557	-1.218576310882	0
1.90687689783	-0.651895683444	0
2.5	0	0
2.25	0	0
2.347047126858	-0.185539804102	0
1.374000926997	-0.300418771701	0
1.25	0	0
1.114902662369	-0.201591505098	0
1.067401015567	-0.470108640981	0
5.75	0	0
5.699780065382	-0.324747799653	0
5.924584257371	-0.172748359932	0
0.883560935405	-0.231136840652	0
1	0	0
9	0	0
9.117836368049	-0.253904480787	0
2.625577516194	-0.346770599322	0
17.859079774019	-0.943547525024	0
17.535029634209	-1.703182852412	0
18.338018094476	-1.366069799339	0
19.932263871771	-0.826489183604	0
19.881635677668	-0.346204516721	0
19.622287080959	-0.573770479943	0
1.5	0	0
1.75	0	0
23.25	0	0
23	0	0
23.109690227386	-0.220340974338	0
2.75	0	0
2.142562771237	-0.172460438312	0
2	0	0
23.332392704446	-0.202507275941	0
23.5	0	0
19	0	0
18.75	0	0
18.888143078348	-0.195773419804	0
2.90152418742	-0.185685383897	0
7.612175045312	-0.180627982114	0
7.527150943175	-0.401430797998	0
7.881917737402	-0.30462800112	0
25.630635194756	-0.512020961038	0
25.243766894324	-0.80097755811	0
25.758031115142	-0.952821630144	0
3	0	0
28.84859809239	-0.201276387394	0
29	0	0
28.75	0	0
4	0	0
3.835807353334	-0.199536243303	0
3.106904732949	-0.178783649348	0
29.25	0	0
29.092446172194	-0.305987136665	0
13.5	0	0
13.667851890428	-0.185102765244	0
13.75	0	0
3.75	0	0
14.407363653886	-0.441423674912	0
14.125469935998	-0.279652141152	0
4.25	0	0
5.061980176718	-0.407989246181	0
5.335512032876	-0.269401530321	0
5.113979852892	-0.173834924157	0
11.882046000841	-0.812345557852	0
12.478640631525	-1.146569360669	0
12.244190771573	-0.565936619511	0
3.633270844505	-0.195395238442	0
14	0	0
18.378272976509	-0.514977451159	0
5.5	0	0
9.619519097921	-1.16461851757	0
10.030576753886	-1.587265312651	0
9.961661342999	-1.070235523667	0
5.25	0	0
5	0	0
13.157975569138	-0.830425793913	0
13.83833027638	-1.238601004239	0
13.671302359608	-0.710707966059	0
11.325917093147	-0.8366783502	0
11.612143285947	-0.506264798476	0
6	0	0
7	0	0
6.83842404292	-0.188923754932	0
7.11236984822	-0.391746146843	0
6.631875629497	-0.169178192832	0
6.75	0	0
3.21002197083	-0.595267231049	0
3.445510026908	-0.608065324465	0
3.362318141622	-0.306501255187	0
6.120159502895	-0.164221934939	0
4.538525595924	-0.906226152762	0
13.233775457127	-1.737244787017	0
4.5	0	0
16.138065841822	-0.472802517973	0
16.126746690205	-0.221608117926	0
15.859319180798	-0.326402762318	0
26.080401003391	-0.227842452866	0
26.25	0	0
26	0	0
3.019224421113	-0.401469974918	0
8.234901607028	-0.35771789179	0
8.518285578354	-0.242327591839	0
8.328777073389	-0.153008859619	0
7.25	0	0
7.400656881666	-0.195280611572	0
7.5	0	0
5.385509485898	-0.709154879541	0
5.948697127931	-0.745234910621	0
8.75	0	0
8.5	0	0
8.25	0	0
2.214249105773	-0.404278959534	0
2.896561357202	-0.792481120253	0
9.25	0	0
4.920911116561	-0.192028847294	0
9.651670336652	-0.200847798694	0
9.849824537955	-0.19917205686	0
9.75	0	0
10.095049354068	-0.315754204277	0
10	0	0
3.25	0	0
6.738406513564	-0.710129601907	0
7.121614580011	-0.943026074581	0
11.345829942703	-0.314788260019	0
11.25	0	0
11.104427225455	-0.188863495516	0
6.052412255932	-0.372556729023	0
6.373371846535	-0.274163514827	0
10.25	0	0
10.380281579003	-0.241092027437	0
10.5	0	0
10.75	0	0
10.909079077441	-0.189427130481	0
11	0	0
6.25	0	0
6.5	0	0
4.75	0	0
3.5	0	0
10.672815698565	-0.318467932684	0
10.772487906066	-0.787092734739	0
11.020900486567	-0.439266778492	0
8	0	0
7.75	0	0
11.5	0	0
11.619450354737	-0.231443672836	0
11.75	0	0
8.139317726831	-0.163309591658	0
12.25	0	0
12.158949464947	-0.235415698299	0
12.412455385193	-0.275030800337	0
12.929165084344	-0.221336108042	0
12.686337592177	-0.258437422252	0
12.900449535554	-0.462768612232	0
12.5	0	0
9.405755833308	-0.325979504745	0
9.111697192308	-0.594170467817	0
9.457257345083	-0.753685223931	0
18.101369157139	-0.618560521812	0
18.336839281097	-0.861122419318	0
10.385948631267	-0.570640149046	0
9.5	0	0
13.411260455969	-0.342646276848	0
12.643108055516	-0.590179775368	0
13.137744715761	-0.195204172124	0
13	0	0
21.25	0	0
21.358341816502	-0.326561417551	0
21.5	0	0
13.816492716597	-0.40394453634	0
20.25	0	0
20.423452336785	-0.313445603959	0
20.5	0	0
17.789350393153	-0.390447709085	0
17.987794057246	-0.401472255242	0
17.881276545163	-0.206424156589	0
19.564465692234	-0.270867872644	0
19.290725118801	-0.49926248604	0
16.392319441256	-0.29915360323	0
19.443730892406	-0.923508713428	0
20.457987075478	-0.803203365193	0
20.167450719332	-0.505159975143	0
0.103762538371	-0.253013629949	0
0.267057015134	-0.483604909932	0
0.374713194419	-0.2320817565	0
13.25	0	0
17.415572543912	-0.230682214253	0
17.5	0	0
17.25	0	0
18.108153655084	-0.208141099276	0
18.25	0	0
18	0	0
15.75	0	0
15.544586046819	-0.246453491997	0
15.122708481244	-0.193620038745	0
15.25	0	0
15	0	0
19.75	0	0
24.149237782749	-0.319013340846	0
23.842766599446	-0.577371105011	0
24.183995039967	-0.73159476451	0
13.871646321742	-0.17394291424	0
23.862588150518	-0.245417872715	0
16.84024277193	-0.203626765466	0
16.704049384397	-0.435508179396	0
17.112673188265	-0.38804641709	0
24.75	0	0
24.832880292394	-0.290571430318	0
25	0	0
16.40158555625	-0.755912194683	0
16.850299990829	-0.757941865332	0
17.75	0	0
23.567455674596	-0.325197491724	0
16.25	0	0
16	0	0
22.645812614293	-0.197864648876	0
22.75	0	0
22.5	0	0
16.75	0	0
17	0	0
24	0	0
26.914424714815	-0.337869958787	0
26.621963281699	-0.624626679172	0
26.977877660759	-0.778408201088	0
26.622424322919	-0.264588309935	0
19.34462271879	-0.199329831305	0
19.25	0	0
19.118057075065	-0.225686869553	0
19.5	0	0
26.75	0	0
27	0	0
27.5	0	0
27.604422363523	-0.298869962794	0
27.75	0	0
17.650384190064	-0.227839036584	0
18.343198956448	-0.236734208617	0
18.5	0	0
24.25	0	0
20.143897114391	-0.233773711865	0
25.5	0	0
25.25	0	0
25.344389320279	-0.31693710653	0
21.059546193318	-0.24845941382	0
20	0	0
25.842927934822	-0.248287716678	0
25.75	0	0
25.613904645132	-0.216025146631	0
21	0	0
11.763551406169	-1.481607093928	0
30.981104050195	-0.5526690913	0
30.873880294509	-0.217692518774	0
30.706626759758	-0.34945139905	0
20.75	0	0
20.85240828135	-0.178025243856	0
23.75	0	0
20.66289882074	-0.189089155251	0
30.204950808504	-0.791758966623	0
30.715535843381	-1.149995259266	0
30.543724897762	-0.572259098027	0
30	0	0
30.180216671806	-0.343473673313	0
30.25	0	0
23.229584388362	-0.458653998547	0
29.5	0	0
29.623391954444	-0.322069028408	0
29.75	0	0
21.618913855927	-0.233585823579	0
21.75	0	0
29.348490380579	-0.521100538161	0
29.36294710412	-0.230601226356	0
22	0	0
22.25	0	0
28.25	0	0
28	0	0
28.129259193923	-0.314252106503	0
28.44374413871	-0.484576386004	0
28.100199615755	-0.812038297775	0
28.649230646972	-0.871769248311	0
28.618403654115	-0.227691192115	0
28.5	0	0
28.387848605749	-0.205892081491	0
29.054768525933	-0.708603081552	0
29.344906532636	-0.846887322836	0
26.327430876245	-0.35930637997	0
10.349120516034	-1.04150119828	0
10.894920134778	-1.514321070539	0
24.59640839418	-0.191760546865	0
12.75	0	0
24.5	0	0
13.102881121377	-0.411296235356	0
25.099388239946	-0.214879887129	0
25.97986022697	-0.52841375324	0
24.398993403151	-0.196312410538	0
17.860840746535	-0.577367743328	0
17.566481510048	-0.529340016102	0
26.5	0	0
16.637148248735	-0.188015807345	0
18.183918302467	-0.396443618316	0
27.159348252167	-0.205297590358	0
27.357530053515	-0.198815038154	0
27.25	0	0
15.060354649709	-1.112587998155	0
15.51532665618	-1.043792149387	0
15.178150912169	-0.713100616689	0
10.051363365948	-0.719159376333	0
14.661248691948	-0.27865166374	0
14.75	0	0
27.868836823455	-0.217301839861	0
31	0	0
30.75	0	0
-0.020273477909	-1.415389842481	0
1.054972770973	-1.487485199502	0
0.512583677021	-1.0438154777	0
0.75	0	0
2.361419414365	-0.794513604096	0
29.890297721653	-0.2433406165	0
30.473599299501	-0.238575611274	0
30.5	0	0
30.660802173874	-0.161931182737	0
28.783812899585	-0.467926883932	0
4.937022539393	-0.72440615077	0
6.696914540879	-0.380672503721	0
7.434272221796	-0.695675918868	0
15.339606453815	-0.166204802571	0
15.281953315711	-0.388999642276	0
11.893544445085	-0.335972898148	0
12	0	0
9.753796445798	-0.478866225926	0
7.720012958977	-0.638314519759	0
21.871398197179	-0.313006985103	0
21.615176662754	-0.521922347305	0
21.856785525528	-0.665128848631	0
20.792152536902	-0.448319093295	0
21.109577821412	-0.527879642114	0
21.360297691811	-0.734200004244	0
15.547854961707	-0.580173571081	0
24.496861814148	-0.467031445896	0
25.067351422649	-0.463427753535	0
24.81263825963	-0.684738154192	0
22.865620821195	-0.218348593093	0
23.443705587002	-0.773171720633	0
27.277617447467	-0.489224417775	0
27.863714790534	-0.471681393437	0
26.239117668995	-0.863279739365	0
29.896797054636	-0.547765129844	0
29.612773839625	-0.699757135752	0
29.867172666547	-0.87444432816	0
29.610354212963	-1.521444655905	0
29.59548165142	-1.071765512911	0
29.115129171034	-1.220660174798	0
31.345359428525	-0.458952144926	0
31.144859415042	-0.241304201582	0
15.919565295974	-0.746550096707	0
16.063006820294	-1.289595303187	0
16.5	0	0
14.900855313538	-0.178071167744	0
14.161016743654	-0.72559708689	0
19.011498044983	-0.834202892304	0
16.760433281999	-1.263698818643	0
17.280361389946	-0.931704507314	0
-0.627742252535	-0.296285438777	0
-1	0	0
-1	-0.5	0
0.625738545692	-0.228405936136	0
0.5	0	0
3.313957665883	-0.865581185485	0
3.619156095452	-0.800599314657	0
[...]
CELL_DATA 986
SCALARS 100.00_0.21 double 1
LOOKUP_TABLE default
9.8374160904434 9.4769958850688 8.4087041461142 6.9707920109158 6.2618203236673 9.2594391936817 8.4765214357656 6.1516482556207 10.053360031632 8.7534570443559 8.1524436162526 9.1550960737368 8.3699266534219 10.653098379588 10.256686104777 8.5935765361076 4.6440373673187 8.0157465024729 10.062483630139 11.197371117848 10.659881387182 10.11628174794 10.839688359968 9.705612679221 9.3375783137181 9.8877106541908 9.1438055371946 6.6770397380557 9.7416047124044 9.3944180900783 7.6183130988832 9.0764426470093 10.488754676004 9.6989102373392 6.7350984641317 9.9377358987349 10.022289670449 8.9254906102068 6.0647001109674 6.6614927772393 10.681960663555 6.5516844503421 9.6258057167421 5.0166545500329 9.1951864649702 8.6972307052893 6.4914371509952 7.3176472334266 8.9573421510428 9.3294886810107 7.9211482676651 7.0237979179551 6.1808784043114 8.9916019380664 7.0135323898152 9.4196340915483 4.8583727905513 11.222640517804 8.6293401366917 6.9993053348642 9.9178027079536 8.7085410413564 10.699536424896 10.426961478883 11.130215076216 10.4733216547 7.5767203700383 6.8459926778465 11.568524224418 7.8305745210921 11.905027297733 10.978539358778 9.8027957423599 10.097104207778 9.7447238992612 7.3849031729039 9.9236944128394 9.5742318140422 10.15914406837 10.11530761006 8.5064156683864 6.0929230242289 9.68128288267 8.1542540672732 10.716097165577 11.27151889365 7.5950628670308 10.156179304197 10.396112391431 10.718221228183 9.5452902577682 11.337301759292 7.5123310729899 8.7511042608092 8.8009076586876 9.7949145274698 10.697391937701 10.504703700033 10.553908123684 9.7540818455164 9.8739891482589 9.9682818896936 8.8692259262041 10.074372465226 7.2182849035476 6.1894356325041 9.5764865031188 8.1517574399438 8.1896993185772 8.8036398729995 7.9425989730198 10.166438214412 9.1216693220092 8.2110854242381 8.9961737236753 13.730693926215 9.0032965195505 10.181999834514 8.7487615329628 8.8789430053993 7.1291649783558 10.528440839823 8.8501332858308 7.3473142601855 8.3764488709222 9.5693206217479 7.9544346549005 7.1796272775118 10.403324448259 9.9444287405225 8.5128486503992 9.3856578687627 11.245717039818 10.255140761533 6.6269497313431 9.2180961145262 7.7329439100426 9.9873663971605 10.526587153143 7.8673359398723 9.4546513441569 8.1024922094962 8.6902794029704 9.9168362175725 11.984655461778 10.770841215923 8.4944464492706 6.3180488655393 8.1985589777908 7.3675468139665 11.346607695244 12.029526289052 7.7159258627492 11.202167324134 8.7591695177549 11.401165591842 10.317710079658 7.4784169801329 8.0666741183646 7.9898946495078 13.113221934104 9.6673959155877 7.874642277978 13.539292106721 10.399186355591 8.0976924837286 5.7109816301683 7.9189519508662 10.743003404447 10.295293483505 12.23387867124 10.430638963397 5.9970264585807 7.6313767074409 9.8900261236195 10.303960728278 9.3286444650806 8.7262255528268 9.0186850920497 10.013671983459 10.590716532599 9.3922588429382 10.479482973507 6.7709101300221 6.6275181200698 10.641859402924 9.5428214440441 10.431589292833 9.1334895120066 6.9458728146442 7.7316170609647 5.8443045016021 9.3440686108539 5.9458349213182 9.3608908141311 9.2051601941363 5.8880577745593 10.974882012534 9.0152204219442 8.8246187099743 10.119310065234 9.2603050777088 8.5474721743092 8.4514407963129 9.7507860884136 7.4162751941372 9.4490739911694 9.0003729045498 9.232073791048 10.336535511801 8.5428071966715 10.007614803708 8.6591682790277 7.529339097741 7.8426370861305 8.0034585097031 5.19408535869 8.12714057412 5.9310464988848 8.8701301056677 9.8249795454681 9.5162368171236 9.954391779395 11.250936711122 9.054026413579 10.00310490981 9.8080590296851 9.7119334351731 8.4388945058465 10.037734926341 9.1074299076999 5.3413460847318 10.0337637423 10.059732981399 8.3707631406781 9.5269737983981 9.0695869668703 6.8091523498155 8.921573246099 8.52862969312 7.6280381882748 7.1801591725813 10.239775315859 8.896664143651 8.3289929640511 10.097106704773 6.6881533003853 8.5883430818379 8.4086601845004 8.0127146338589 6.8381549826944 8.0263002354038 6.58794691323 9.0710820883851 10.663670718522 6.6661650679585 9.8305400559185 9.3926978472857 10.814764740994 7.2830332880169 8.6123972886368 7.9744138244763 10.40823480224 9.2765406877354 7.1833103990549 11.453991464233 7.7242707764965 9.3426042915598 7.1228775648606 7.08028268295 8.7058388255471 10.136221333228 8.7374154484968 8.1584764482107 10.305925463756 10.407366418552 7.6740787715683 8.6132264774149 9.6215409689947 9.2134373993538 7.8254824284411 9.8784621127086 11.018228060111 10.155772522613 6.8476920500873 10.450447713665 9.29866942075 10.730445328574 10.227165982373 9.2175701123103 8.2351362731222 8.0683446706982 7.6659046949397 10.78299040335 8.5119980336122 10.830432707914 8.0741823778456 9.6769678081667 11.743625196846 9.067242583638 6.7592594251672 9.4396050239067 12.102785988806 10.579227195879 6.3116735060098 7.9943903131925 8.6178392405768 9.6091922626038 8.3376018956535 10.068458476478 9.2032596727732 9.5559160867366 8.1113894792287 8.1130822065513 9.4335144841069 7.9682659038406 9.6244766075826 7.7633908907595 7.4765102634721 9.3549237132912 8.3689166469469 9.5745907118816 7.9489639571798 7.5064587866474 8.7214957140167 8.6494359294985 10.894808672505 7.2583572353872 6.3756870150522 4.8622354381429 7.7920517766816 7.3081369976202 8.1806290710733 9.1746809097555 7.9947845906124 9.0752619727678 8.1883038214882 9.4548812771887 8.0930631031429 9.4952626557007 5.1250925365486 5.571866082445 10.824038900121 9.7071110812419 9.9573688443853 9.3004317231809 10.351409158836 11.551995481897 8.7623855341891 6.9947127501235 9.0485322453017 6.2930243321945 8.4813898954225 5.7010254646644 6.9091543079922 6.324111641704 6.1281401485233 7.5864998633334 7.3145274433298 8.4282647984538 6.9353862977441 5.3512552410562 7.43845915008 8.3936069464048 9.8697286168093 6.8102263421746 6.0550231563823 5.5396224589167 7.1358075579617 9.5675090422318 9.4502526213794 7.2902056395444 6.8892557079815 6.1262810802235 7.4383157497341 8.763741699352 7.2560765163906 10.127864997284 9.8984557887675 6.4652682177615 5.4132929434688 7.0963990539186 8.8091845338329 9.1817898399437 11.215331314737 10.809947569543 8.4482862983961 9.6645435683587 6.9223892237846 10.930544944511 8.422663658491 7.9311597139531 5.9565234948566 9.0342931071506 7.8103176853556 8.9944047481909 7.2518620376523 8.5763909911015 8.9396535006626 9.1601371430676 10.355550421513 10.782389279887 9.535451533237 7.389329285418 5.9906406177418 10.991446883338 6.2704336491909 9.8274620991932 10.917170242248 7.1033190735425 10.620372102455 8.2456693922355 7.6544646518441 7.4828004993426 9.115908140768 7.9028541118849 6.6416222005405 7.1392925339352 5.6303593330044 6.9703822769316 6.3766160663613 9.659973876156 9.0223910676158 6.7878670970219 7.2704355704878 7.7128402572668 6.314311244836 6.7982491351799 8.0665113730243 7.1744741719156 7.4657566890695 10.445020465221 9.5184141598977 8.1100690781198 7.6478079971865 8.5259482290278 5.3646140989075 7.450267588601 5.0626439409924 7.5030312720665 5.4164352949692 7.2470220798152 9.3476855795481 8.863714106179 5.4707133941047 8.2158127091985 4.7099086916189 9.5007815670814 6.9069639294052 7.5366198493659 9.5420483490878 9.8985342690201 10.033087623184 6.7742555035398 5.5340541545757 4.3986186797874 6.9572275305741 9.6057783397235 7.8841034925322 8.0269421100845 7.4626310574471 8.2228992154684 8.0459023611259 6.9438624595337 7.19038880836 4.8185867224385 5.959098053724 6.549285908579 5.4649958574353 4.9591460507519 5.5905031263273 9.0400071017229 6.6715593195111 4.8732128916571 4.3522455926561 9.2445438126589 7.5386036613749 7.0640615322217 6.5639060736951 5.5827000740493 6.4784072030039 5.427594641349 5.7628150331356 9.849126801388 7.9477615310228 7.3676698602386 7.9546303234255 9.7011554171173 7.4147283721838 7.8709863738354 4.6239887665656 8.6094258604829 9.1627671525517 10.062101948414 6.8599650313847 5.9918632829975 4.6553304769907 4.0358519195618 6.3779746756403 8.3915760977308 6.6665354216517 6.7089860640297 5.4801864910577 6.3005849549486 8.1312389822994 10.14698685132 5.4921378822655 8.6900142544303 10.180575573212 4.2112851740094 8.3987122091185 11.987930578433 9.5663451986334 5.3009842730229 8.1382385096762 7.5295529524091 6.2588927915725 5.825521092303 5.0040379956541 9.592311987389 9.4102288044374 5.0033182710325 7.8249997591661 7.1640260836013 5.8043800054841 5.5587658771923 4.7166159288876 9.640515148619 8.7032909035096 7.8736010972187 6.6428864409659 7.6664792756592 7.6914167393221 7.928747671256 6.5253245968547 7.5617243763613 9.102662805274 8.5974764237224 4.909939132769 3.7912647607881 7.4020267186743 5.7111485238722 8.2308821728697 8.5630449666766 5.1705562286261 8.6545176707144 3.8354445786608 5.6654188639269 3.7034569432236 4.2846818607497 8.3557775455138 5.3640373697065 8.1677080585066 5.4586843751442 7.7149797704349 7.4180006769285 6.1503735569478 7.493628460991 5.1797704530641 5.922808694622 6.0716871426529 5.7090603534911 7.6589940237928 5.6424232453713 6.7355750467575 8.8099657927552 5.2867953172498 4.7564250572115 6.804849341571 6.4497591864296 10.144347553654 5.617902192716 8.4196374177109 6.7338876505586 9.0484644481133 8.7931407311895 5.3734340783016 3.9280466394827 7.9380208690969 6.8863811013852 6.4571920406408 6.5721956105004 10.197590099215 7.6364758970068 5.1459933401913 7.3155505027232 9.4314031991926 7.9482745216441 8.1917347483975 7.1990651692829 7.756972299144 6.7142670110538 3.9825818347118 7.5342808250026 4.2153116543737 7.7488171556128 6.9794146137773 7.6555749709927 6.0175547436705 6.8876348812564 7.0062671110243 7.0115571607312 6.9094445045013 5.6841886044301 4.6015492310954 3.8512644980151 4.8444022940535 6.531839477124 8.7404401471044 6.8474834324641 6.078149836334 6.3861965741178 5.2175181859498 10.762556726502 5.0917984169608 10.329796076449 7.8714332718351 3.8439261424203 8.0001284623147 8.5187182997343 6.5884025497063 8.182378678719 7.0442751976326 5.5819747375065 5.7138000248779 5.2322075127595 7.1128330948375 7.3943530777436 3.9242108670114 4.7831178670338 4.1559020997061 5.3058276851904 4.6676622284233 8.377211685424 5.3526040771518 8.2127818748228 4.6284676697777 4.89592388761 5.0362606436411 7.3022392330251 4.330802786167 4.331672121469 6.1916080489174 4.8811436151152 3.8283700806832 5.681584940368 9.032539476269 8.3942917269648 6.8654069763589 4.3587878948035 4.833919694125 4.5609285262218 7.4258875709552 6.8478414507735 7.1377874415237 6.435696135327 8.4217665918053 7.8133213743883 5.3061583751551 7.9881954774978 5.5392915272606 7.7818580427393 5.6122954989612 7.3569600579727 8.1301699502996 6.4768136952655 7.4797231511323 7.1063188116673 7.4686279927407 7.8852892137972 8.0937707264311 6.8217451009263 7.5948428761979 4.1199485505551 5.2516526992148 7.7340353677429 4.4562294255407 9.2580424621592 6.7949214711274 5.9659555508698 6.057627098897 6.1033326479588 5.0910071789283 4.8247743626423 4.7678583404465 4.7105461924472 4.856378679385 9.2101532615641 8.7544281236216 9.6408430296698 9.7934545117649 4.6671822363479 3.6885735550614 5.1609982628091 5.5359146200978 5.746726717782 5.3856628963797 5.4829401895469 5.0818180437629 5.9744112401567 6.1180671364575 6.0538285651647 5.8797668784762 6.1115977334388 6.2431575926836 5.597046694018 5.1495877047376 7.3293963754123 7.1885945635248 4.4866522840347 3.4893121954937 3.3812921434706 4.2716546853976 3.9098121936766 6.4240939517428 5.5691351279306 6.6333623755333 6.1060231848129 10.564262265103 10.379788020257 3.9472219810672 4.4059008060417 7.4061941490731 5.3591624332621 3.7281498909143 3.8433035506669 4.994143518219 6.9233024973469 8.9467986366506 6.3564245151517 7.0945165908909 4.9410812248288 5.2125872973439 8.9619591395291 4.7667962188689 7.066548230497 9.6264516944883 4.6821259099437 4.1361792052009 7.2480401057707 7.5324279834148 4.9686597903138 4.508382777949 4.3620103223968 5.9766412393858 3.8219363291307 4.8390985280999 3.5845680803133 3.5224702793562 3.9940760174094 8.6883876631707 4.5343288516456 5.4733352779149 4.4805827512803 5.190046082408 4.2675595292132 5.2572117699895 8.0223978008444 3.5961697414405 6.0187462694305 3.4689893814674 3.9783647617311 5.0507955379544 4.1475062966277 3.8336280132796 3.8593536630497 4.315986139927 4.0975426508626 4.4969178645756 3.8562091343423 6.9419593923891 4.8345504186843 3.6737760191388 4.0741955522476 4.6403305225047 4.6040723497595 6.6536323379681 6.6617601051736 7.7044460016161 6.983888406534 6.2204664489008 6.6932489697285 5.6859459594005 6.204838651648 7.1843756870851 6.761439290042 5.3602847152389 5.8905582746675 5.7657995288581 7.343541130328 6.5340069361885 3.4584289023519 4.519031938825 5.4039424274451 4.3896670115812 4.214420521466 3.8678416516335 4.0269278811358 3.6748039178291 4.3710442786536 3.8234116454094 4.2865284056458 4.7300034177296 10.06479458552 4.2281974815183 5.0511236109661 4.9106358607582 9.6286118755533 7.0278970263975 3.7903360143282 3.7344631742515 3.4420747533894 4.3302686946153 4.8437366247281 10.99774124275 3.7126685328024 4.0564414435372 4.2451220876943 3.4285803090233 4.4523109611919 5.2834905207209 4.7857044404196 4.6642177413841 3.9147558177497 4.7612342481754 4.1768803075111 3.688761312693 4.4786033066513 3.4463642054111 3.6982281065401 4.3938572851442 4.1656582725751 3.3838363690246 3.6376944156578 3.3818077594244 3.5403094595933 3.4493648960145 3.4422732363128 3.5761215961179 4.3176914129553 4.1933200898551 5.2197210549701 5.4004327318339 3.7561431196344 3.4884692254494 3.3815442437787 4.2579633362767 3.5593859237973 3.5119771640351 3.5529893820106 3.563207954311 3.5125616786513 3.8105343374637 3.548620356183 4.3221392472244 3.2950608080548 3.4285863627612 4.0967836741318 3.9829468530602 3.3537637088741 3.3487933357557 3.5305801725703 3.6124588364771 3.3870644065682 3.4108115096736 3.4033346744346 3.5146164620646 3.5066877324433 3.5075181078854 3.879300350501 3.5885787376747 3.6676149649464 3.3704984917754 4.2743746582801 3.3785311851541 3.5434966355676 3.3408149712901 3.338220445655 3.3860349302637 3.3932575800194 3.5204192705795 3.561072836928 3.4996000094189 4.1757191819233 3.4803816904747 3.8729645629245 3.31422478252 3.4152537772596 3.6646420248622 4.19850145504 3.552613462274 3.5042242485593 3.3004392626604 4.4248498964578 3.7464285355142 4.2642915563299 3.7910249244201 3.420741443311 3.5217097584585 3.4587323044222 3.3652373954892 3.896388707255 3.6879222938218 3.5777593547464 3.7193118925942 3.9370538008899 3.726043513833 3.9479369217145 3.3435914746292 3.6069213033683 4.5313954897155 4.0685550476773 3.8808840894355 3.5881859463236 4.0050388544629 3.3195193566407 3.7347628224455 3.5858043360395 4.2117436886594 3.6892088940863 3.8481763674772 4.1471803946609 3.6774057219772 4.1201219720539 3.7455661548838 3.8032043404469 4.1065043916591 4.2276760796641 4.241251375171 3.8359360103711 4.1421017752638 3.5651803546474 3.5374509395622 3.4991461940286 3.5683019597039 3.7236463617907 4.1236183570018 4.1332578303446 4.0185878127319 3.7893783306489 4.0867064313817 4.0869133949388 4.3394367249769 4.5972972756537 4.3836375778576 3.698187774718 3.7327234531879 3.5943543093508 3.8169318006366 3.9453644715044 3.4266587504159 3.7344571177871 3.9535850296448 3.5773702067016 3.7456668167505 3.590726179757 3.9124432252168 3.9435657982304 4.0539785329598 3.9123343371572 4.3022313076376 4.2188079096109 4.1108657346953 4.0759622198272 4.034327078468 4.1915867797533 4.2044415060705 4.2098586688401 4.17817449223 3.9657550325815 3.6725078779521 4.4592676882562 4.0967975173 3.9030835966611 4.0412640960588 4.1804180947117 4.2181554129665 3.9127857509484 4.0674430011164 4.329045633458 4.3496628377344 4.430996122793 4.4342762518186 4.2171761407501 4.4808961538225 4.4340733167582 
SCALARS 200.00_0.46 double 1
LOOKUP_TABLE default