# vtk DataFile Version 3.0
d-2__ created by libgimli-v1.1.0
ASCII
DATASET UNSTRUCTURED_GRID
POINTS 570 double
14.5	0	0
14.25	0	0
14.386963504964	-0.201738469428	0
22.399299936458	-0.310870122736	0
22.129824335287	-0.229914148082	0
22.126320781198	-0.518791771445	0
8.472303742627	-0.591754876635	0
8.780507935475	-0.76092407121	0
8.82173151259	-0.349253271447	0
18.663262297679	-0.667179415955	0
18.934786529245	-0.453308328646	0
18.636898038907	-0.29588182328	0
4.016904362632	-0.85330676142	0
4.076038737616	-0.331410355179	0
3.713721571226	-0.470767763626	0
1.89953779852	-0.269343012166	0
1.633800503821	-0.203067612233	0
1.644492760828	-0.441295523531	0
4.368408037607	-0.250833874131	0
4.337474161742	-0.544420985055	0
4.67745607622	-0.378433532554	0
1.406172533733	-0.772361039307	0
1.913288206557	-1.218576310882	0
1.90687689783	-0.651895683444	0
2.5	0	0
2.25	0	0
2.347047126858	-0.185539804102	0
1.374000926997	-0.300418771701	0
1.25	0	0
1.114902662369	-0.201591505098	0
1.067401015567	-0.470108640981	0
5.75	0	0
5.699780065382	-0.324747799653	0
5.924584257371	-0.172748359932	0
0.883560935405	-0.231136840652	0
1	0	0
9	0	0
9.117836368049	-0.253904480787	0
2.625577516194	-0.346770599322	0
17.859079774019	-0.943547525024	0
17.535029634209	-1.703182852412	0
18.338018094476	-1.366069799339	0
19.932263871771	-0.826489183604	0
19.881635677668	-0.346204516721	0
19.622287080959	-0.573770479943	0
1.5	0	0
1.75	0	0
23.25	0	0
23	0	0
23.109690227386	-0.220340974338	0
2.75	0	0
2.142562771237	-0.172460438312	0
2	0	0
23.332392704446	-0.202507275941	0
23.5	0	0
19	0	0
18.75	0	0
18.888143078348	-0.195773419804	0
2.90152418742	-0.185685383897	0
7.612175045312	-0.180627982114	0
7.527150943175	-0.401430797998	0
7.881917737402	-0.30462800112	0
25.630635194756	-0.512020961038	0
25.243766894324	-0.80097755811	0
25.758031115142	-0.952821630144	0
3	0	0
28.84859809239	-0.201276387394	0
29	0	0
28.75	0	0
4	0	0
3.835807353334	-0.199536243303	0
3.106904732949	-0.178783649348	0
29.25	0	0
29.092446172194	-0.305987136665	0
13.5	0	0
13.667851890428	-0.185102765244	0
13.75	0	0
3.75	0	0
14.407363653886	-0.441423674912	0
14.125469935998	-0.279652141152	0
4.25	0	0
5.061980176718	-0.407989246181	0
5.335512032876	-0.269401530321	0
5.113979852892	-0.173834924157	0
11.882046000841	-0.812345557852	0
12.478640631525	-1.146569360669	0
12.244190771573	-0.565936619511	0
3.633270844505	-0.195395238442	0
14	0	0
18.378272976509	-0.514977451159	0
5.5	0	0
9.619519097921	-1.16461851757	0
10.030576753886	-1.587265312651	0
9.961661342999	-1.070235523667	0
5.25	0	0
5	0	0
13.157975569138	-0.830425793913	0
13.83833027638	-1.238601004239	0
13.671302359608	-0.710707966059	0
11.325917093147	-0.8366783502	0
11.612143285947	-0.506264798476	0
6	0	0
7	0	0
6.83842404292	-0.188923754932	0
7.11236984822	-0.391746146843	0
6.631875629497	-0.169178192832	0
6.75	0	0
3.21002197083	-0.595267231049	0
3.445510026908	-0.608065324465	0
3.362318141622	-0.306501255187	0
6.120159502895	-0.164221934939	0
4.538525595924	-0.906226152762	0
13.233775457127	-1.737244787017	0
4.5	0	0
16.138065841822	-0.472802517973	0
16.126746690205	-0.221608117926	0
15.859319180798	-0.326402762318	0
26.080401003391	-0.227842452866	0
26.25	0	0
26	0	0
3.019224421113	-0.401469974918	0
8.234901607028	-0.35771789179	0
8.518285578354	-0.242327591839	0
8.328777073389	-0.153008859619	0
7.25	0	0
7.400656881666	-0.195280611572	0
7.5	0	0
5.385509485898	-0.709154879541	0
5.948697127931	-0.745234910621	0
8.75	0	0
8.5	0	0
8.25	0	0
2.214249105773	-0.404278959534	0
2.896561357202	-0.792481120253	0
9.25	0	0
4.920911116561	-0.192028847294	0
9.651670336652	-0.200847798694	0
9.849824537955	-0.19917205686	0
9.75	0	0
10.095049354068	-0.315754204277	0
10	0	0
3.25	0	0
6.738406513564	-0.710129601907	0
7.121614580011	-0.943026074581	0
11.345829942703	-0.314788260019	0
11.25	0	0
11.104427225455	-0.188863495516	0
6.052412255932	-0.372556729023	0
6.373371846535	-0.274163514827	0
10.25	0	0
10.380281579003	-0.241092027437	0
10.5	0	0
10.75	0	0
10.909079077441	-0.189427130481	0
11	0	0
6.25	0	0
6.5	0	0
4.75	0	0
3.5	0	0
10.672815698565	-0.318467932684	0
10.772487906066	-0.787092734739	0
11.020900486567	-0.439266778492	0
8	0	0
7.75	0	0
11.5	0	0
11.619450354736	-0.231443672836	0
11.75	0	0
8.139317726831	-0.163309591658	0
12.25	0	0
12.158949464947	-0.235415698299	0
12.412455385193	-0.275030800337	0
12.929165084344	-0.221336108042	0
12.686337592177	-0.258437422252	0
12.900449535554	-0.462768612232	0
12.5	0	0
9.405755833308	-0.325979504745	0
9.111697192308	-0.594170467817	0
9.457257345083	-0.753685223931	0
18.101369157139	-0.618560521812	0
18.336839281097	-0.861122419318	0
10.385948631267	-0.570640149046	0
9.5	0	0
13.411260455969	-0.342646276848	0
12.643108055516	-0.590179775368	0
13.137744715761	-0.195204172124	0
13	0	0
21.25	0	0
21.358341816502	-0.326561417551	0
21.5	0	0
13.816492716597	-0.40394453634	0
20.25	0	0
20.423452336785	-0.313445603959	0
20.5	0	0
17.789350393153	-0.390447709085	0
17.987794057246	-0.401472255242	0
17.881276545163	-0.206424156589	0
19.564465692234	-0.270867872644	0
19.290725118801	-0.49926248604	0
16.392319441256	-0.29915360323	0
19.443730892406	-0.923508713428	0
20.457987075478	-0.803203365193	0
20.167450719332	-0.505159975143	0
0.103762538371	-0.253013629949	0
0.267057015134	-0.483604909932	0
0.374713194419	-0.2320817565	0
13.25	0	0
17.415572543912	-0.230682214253	0
17.5	0	0
17.25	0	0
18.108153655084	-0.208141099276	0
18.25	0	0
18	0	0
15.75	0	0
15.544586046819	-0.246453491997	0
15.122708481244	-0.193620038745	0
15.25	0	0
15	0	0
19.75	0	0
24.149237782749	-0.319013340846	0
23.842766599446	-0.577371105011	0
24.183995039967	-0.73159476451	0
13.871646321742	-0.17394291424	0
23.862588150518	-0.245417872715	0
16.84024277193	-0.203626765466	0
16.704049384397	-0.435508179396	0
17.112673188265	-0.38804641709	0
24.75	0	0
24.832880292394	-0.290571430318	0
25	0	0
16.40158555625	-0.755912194683	0
16.850299990829	-0.757941865332	0
17.75	0	0
23.567455674596	-0.325197491724	0
16.25	0	0
16	0	0
22.645812614293	-0.197864648876	0
22.75	0	0
22.5	0	0
16.75	0	0
17	0	0
24	0	0
26.914424714815	-0.337869958787	0
26.621963281699	-0.624626679172	0
26.977877660759	-0.778408201088	0
26.622424322919	-0.264588309935	0
19.34462271879	-0.199329831305	0
19.25	0	0
19.118057075065	-0.225686869553	0
19.5	0	0
26.75	0	0
27	0	0
27.5	0	0
27.604422363523	-0.298869962794	0
27.75	0	0
17.650384190064	-0.227839036584	0
18.343198956448	-0.236734208617	0
18.5	0	0
24.25	0	0
20.143897114391	-0.233773711865	0
25.5	0	0
25.25	0	0
25.344389320279	-0.31693710653	0
21.059546193318	-0.24845941382	0
20	0	0
25.842927934822	-0.248287716678	0
25.75	0	0
25.613904645132	-0.216025146631	0
21	0	0
11.763551406169	-1.481607093928	0
30.981104050195	-0.5526690913	0
30.873880294509	-0.217692518774	0
30.706626759758	-0.34945139905	0
20.75	0	0
20.85240828135	-0.178025243856	0
23.75	0	0
20.66289882074	-0.189089155251	0
30.204950808504	-0.791758966623	0
30.715535843381	-1.149995259266	0
30.543724897762	-0.572259098027	0
30	0	0
30.180216671806	-0.343473673313	0
30.25	0	0
23.229584388362	-0.458653998547	0
29.5	0	0
29.623391954444	-0.322069028408	0
29.75	0	0
21.618913855927	-0.233585823579	0
21.75	0	0
29.348490380579	-0.521100538161	0
29.36294710412	-0.230601226356	0
22	0	0
22.25	0	0
28.25	0	0
28	0	0
28.129259193923	-0.314252106503	0
28.44374413871	-0.484576386004	0
28.100199615755	-0.812038297775	0
28.649230646972	-0.871769248311	0
28.618403654115	-0.227691192115	0
28.5	0	0
28.387848605749	-0.205892081491	0
29.054768525933	-0.708603081552	0
29.344906532636	-0.846887322836	0
26.327430876245	-0.35930637997	0
10.349120516034	-1.04150119828	0
10.894920134778	-1.514321070539	0
24.59640839418	-0.191760546865	0
12.75	0	0
24.5	0	0
13.102881121377	-0.411296235356	0
25.099388239946	-0.214879887129	0
25.97986022697	-0.52841375324	0
24.398993403151	-0.196312410538	0
17.860840746535	-0.577367743328	0
17.566481510048	-0.529340016102	0
26.5	0	0
16.637148248735	-0.188015807345	0
18.183918302467	-0.396443618316	0
27.159348252167	-0.205297590358	0
27.357530053515	-0.198815038154	0
27.25	0	0
15.060354649709	-1.112587998155	0
15.51532665618	-1.043792149387	0
15.178150912169	-0.713100616689	0
10.051363365948	-0.719159376333	0
14.661248691948	-0.27865166374	0
14.75	0	0
27.868836823455	-0.217301839861	0
31	0	0
30.75	0	0
-0.020273477909	-1.415389842481	0
1.054972770973	-1.487485199502	0
0.512583677021	-1.0438154777	0
0.75	0	0
2.361419414365	-0.794513604096	0
29.890297721653	-0.2433406165	0
30.473599299501	-0.238575611274	0
30.5	0	0
30.660802173874	-0.161931182737	0
28.783812899585	-0.467926883932	0
4.937022539393	-0.72440615077	0
6.696914540879	-0.380672503721	0
7.434272221796	-0.695675918868	0
15.339606453815	-0.166204802571	0
15.281953315711	-0.388999642276	0
11.893544445085	-0.335972898148	0
12	0	0
9.753796445798	-0.478866225926	0
7.720012958977	-0.638314519759	0
21.871398197179	-0.313006985103	0
21.615176662754	-0.521922347305	0
21.856785525528	-0.665128848631	0
20.792152536902	-0.448319093295	0
21.109577821412	-0.527879642114	0
21.360297691811	-0.734200004244	0
15.547854961707	-0.580173571081	0
24.496861814148	-0.467031445896	0
25.067351422649	-0.463427753535	0
24.81263825963	-0.684738154192	0
22.865620821195	-0.218348593093	0
23.443705587002	-0.773171720633	0
27.277617447467	-0.489224417775	0
27.863714790534	-0.471681393437	0
26.239117668995	-0.863279739365	0
29.896797054636	-0.547765129844	0
29.612773839625	-0.699757135752	0
29.867172666547	-0.87444432816	0
29.610354212963	-1.521444655905	0
29.59548165142	-1.071765512911	0
29.115129171034	-1.220660174798	0
31.345359428525	-0.458952144926	0
31.144859415042	-0.241304201582	0
15.919565295974	-0.746550096707	0
16.063006820294	-1.289595303187	0
16.5	0	0
14.900855313538	-0.178071167744	0
14.161016743654	-0.72559708689	0
19.011498044983	-0.834202892304	0
16.760433281999	-1.263698818643	0
17.280361389946	-0.931704507314	0
-0.627742252535	-0.296285438777	0
-1	0	0
-1	-0.5	0
0.625738545692	-0.228405936136	0
0.5	0	0
3.313957665883	-0.865581185485	0
3.619156095452	-0.800599314657	0
[...]
CELL_DATA 986
SCALARS 100.00_0.12 double 1
LOOKUP_TABLE default
10.334225983635 8.7483325095894 8.254560856131 7.5919385107927 6.9023190866328 9.3154249556528 8.2722944685812 6.4790133488133 9.7120720243853 8.3979820024335 8.1371205562292 9.2531223266913 8.3189574264124 9.512750847047 9.7531650234156 8.3759893304297 5.1102244655777 8.2448704551638 10.358931487445 10.052174322847 9.9212552816944 9.6987727985346 9.6651674738131 9.5151982702616 9.2494199094213 9.4959479337332 9.334620582474 6.6723772649838 9.4675674007401 8.9139032459757 8.1585246836354 8.9747408397235 8.7949016164518 10.088804548177 7.9200364371282 9.9113555233728 9.0673514914072 9.0563358743918 6.5931683666249 7.8178134996292 10.963740184808 7.3453064567528 9.6637962214587 5.4356357244924 9.4606525226457 9.0773459173961 6.7931993971033 7.5127628755316 9.1217451704963 8.617085522575 8.4257041212551 7.7943852422877 6.8263002877005 9.1244430784169 7.2234736387153 9.5423368630082 5.3546003046514 9.6911291497925 8.8809447160789 7.9174421730282 8.9901170392415 8.6713282441513 9.9613298973727 10.511567791516 9.8510506089516 9.5514000574328 7.7892954914806 7.3216944097141 10.16263958405 8.0873322485712 10.60787312483 9.8547749303021 8.9496913980443 9.797625009038 9.4050929321981 7.6305709207658 9.2710910326344 9.4678108426777 9.9777788152763 9.845969220034 8.509174489329 6.7896506509017 9.9478466142906 8.5319499651456 10.611414648718 11.150210449229 8.5599148282966 10.137372639391 9.3947349465332 10.138861671056 9.3036766323416 9.7388204993175 7.9193327289527 9.076487452631 8.9240644656114 10.152087459442 10.059857421089 10.089645437242 9.687290495666 9.9512705697904 9.20349526708 10.139664821471 8.8159130212866 9.4249384133773 7.5872741269185 6.8888852243229 9.4836222220251 8.3632660856897 8.2534372180555 8.6817298495163 8.2741582742076 9.5899422593823 8.6894723809257 8.7736591886264 8.9406037479053 11.605253575338 8.5937586164892 10.472028823233 8.8817069908718 9.1772539781874 7.5462426337458 10.348330545632 8.5797501849908 7.8347689878066 8.3562365132623 9.9410539643799 8.1580124871085 7.4997686993262 9.9187768718032 9.1998614506688 8.6078629724522 9.4403729018024 9.2452806475263 10.210870161662 7.2002535951718 9.5006440501438 7.9855133557995 9.926285185253 9.1926050593156 8.1096734749677 8.780408253036 7.9934503031564 9.4035879987298 9.181062896438 11.445655169828 10.508791930464 8.6019915847126 6.7099540516946 8.4906823813679 7.4498768821242 10.34053424329 10.825091878002 8.0472451025451 10.165425545481 8.4178657985167 9.6466031270664 9.5354613535486 8.2588206880445 8.0973646806688 7.9887943261096 11.284137763558 9.1717694838024 8.7372538082611 11.710532778246 9.3824231117567 8.9831920928309 6.0748516152892 8.089358124959 10.386292219141 8.8202884998195 10.651649841829 10.406004487458 6.5026082766812 7.9615930064594 8.9864884858549 8.8220095253019 9.6572259846089 9.2186528528171 7.9486253926977 8.4496344415038 9.6277186040874 8.6372623146443 9.1474713817581 6.7695565441016 7.0675588544209 9.9718755243236 8.9445385064965 9.5594717530753 8.0060072494086 6.7956960561844 7.5399023269007 6.1685333509285 8.685102351839 6.5314116348597 8.8790451161418 9.001899118302 6.5081525159108 9.7485738363986 8.8775678222438 8.7938894818773 9.2537763362389 8.5028046737405 8.6723951631716 8.6255497627051 9.388750050508 7.4910365654292 8.6211141687215 8.9471305869733 8.5046803396165 9.2463035461988 8.8013310644342 10.022577247056 8.246054566652 8.0798534685309 8.2192909837249 8.2860799925165 6.0273641344824 8.2638573565054 6.3398741578238 8.2673553662957 8.9065090346828 9.19565814542 9.5265032297594 10.970889155526 8.3365749157439 9.6283215237633 8.846037379066 8.5190192133068 8.5012548911427 10.209499740654 8.9741784781468 5.6541239599167 8.3725010518765 8.4483096840773 8.2266275780002 9.0479430742069 9.0466068891511 7.0824861610778 8.5871139900356 8.4874653954143 7.9958003367728 7.624249347665 9.9304105807774 9.201241971867 8.5360400954434 9.3397294547853 7.8878945029852 8.6643589917527 8.180951387102 8.2626975329621 7.5656629396073 8.1513282297032 7.0416028914287 8.5772874896069 9.3385653474647 7.6173061737866 9.5824153319242 9.1017936792989 10.477861012112 7.5479090504441 8.6443146280101 8.1874490042287 9.8446899613618 9.2214321112869 7.8942639451677 10.319108166633 8.0537051137773 9.7927570786582 7.7355233892854 7.8322519226524 8.8242155891375 9.4448311987606 8.8948072002678 8.7465980185282 9.5292776235298 9.7785328407204 8.1051958456963 8.803220081481 9.3651737228075 9.2659899021677 8.0301484447747 9.5517846460402 10.692295952481 10.23652510851 7.1695360602808 10.5567207224 9.2952129442768 10.435026688524 10.230134609502 9.3038538278872 8.5445298925504 7.9926803335107 7.7803207652875 9.6557249851802 8.6307131340539 9.7631653912072 8.5395830552484 9.4564952778246 10.384376872142 9.4034519120974 7.5956647671593 9.8030703025306 11.012975525619 9.8869782619885 7.2457736144827 7.8003009643929 8.9807995991973 9.5591093940988 8.4020569030442 9.0533952158575 8.7006893592021 9.1016292000344 8.2726669895236 8.4102893963031 8.5625390925883 7.9291827955382 9.119346588196 7.5212368870516 7.8207250947872 8.9025781520688 7.9033265604007 8.5066815894332 8.3177071825951 7.9484127414025 8.1058358280619 7.9944047989717 9.7804455874073 7.0765264842947 6.6043307416027 5.2449404258321 7.817818385638 7.2215540812104 8.3489050041931 8.4915254041621 7.8138116349337 8.4298841257138 8.2133603175958 8.8434459775655 7.6700747773484 9.7760251431504 5.8463115410885 6.5074663899358 10.884948123477 9.4434127188911 9.826778153207 9.1801443304952 9.0872425530797 9.5292588005085 8.9468092025757 7.8088943484563 8.9473183277166 6.8344333424056 8.4935562432751 6.306959999302 7.7269362562736 6.6224176392721 6.4347035182504 7.7726141234919 7.1579800828043 8.1918447286011 7.8154967402775 6.0207534484753 7.5653631095034 8.5553398195246 9.4964758046201 7.1399158438008 6.4586392159502 6.1189031759744 7.3912702028581 9.4698424814492 9.8137633589827 8.0275536561716 7.4544551917436 6.7460218004505 7.8790077751468 8.8574542228646 7.6290595425472 9.8246392613021 9.4496693923087 6.9818171930672 5.9109963627336 7.7979157742081 8.9188325727491 9.2359628267896 10.61633682556 9.4893030651346 8.438723311994 9.8008898907396 7.2057911291995 10.774612872566 8.5359222032443 8.1369707782368 6.7341467031173 9.0673471575862 8.0618899459112 9.2634962544184 7.7462425743621 8.5911147495058 8.1935166538857 8.5830303156906 9.5585085823467 9.5581580071081 8.7424558642897 8.2712751971092 6.6384444341147 10.260838852974 6.8894750661962 9.0342231973427 9.9600361125645 7.9399213779416 10.575260092912 8.5799120792602 8.2047356028633 7.7224832192999 8.6695945827747 8.1495935894936 7.2967997230704 7.1971816384121 6.1877006955473 7.6552513375497 6.397437964781 9.0993850409586 8.6041467268278 7.1282913965659 7.278894981848 8.1439216106204 6.8536979432438 6.7916732750966 7.5016251159683 7.0345273207506 7.3251934220318 9.5439325651817 8.8396397766193 8.3678859709824 7.7741400148865 8.4774780973369 5.7751329527417 7.8122244528847 5.3785735014823 7.6740626458387 5.7784514452974 7.5767064998828 8.6617879023363 8.3081050779071 6.1716446573497 8.666991699305 5.1159843434673 9.1046595246866 7.234299043848 7.7489121039485 9.9188990825695 9.8747879007469 9.9116640894607 7.5350604048797 5.9383895460986 4.7408613787262 7.5021714169457 9.3371136788924 7.9336078731874 8.1178511569942 7.6587513892825 8.1362922386974 8.1775018696255 7.622022191548 7.3524750928098 5.4451129998604 6.3390307645926 7.4331311340802 6.1523629122559 5.4984391742239 6.3118950574658 8.9297464002108 6.9852590235054 5.4979139291957 4.8869206671261 9.0821387229928 7.9364297518601 7.797567243548 7.300447930893 6.0445599580009 7.1726228860229 6.0217888892748 6.2707866677697 9.5758007382254 8.2416962327502 7.6412041958363 8.0649823228147 9.1890862755613 7.5331631830856 8.1750222097462 5.1966064293626 8.5433444233666 9.5090572296737 10.072098129293 7.4912517021678 6.4472275045459 5.1704609699694 4.3071089477947 7.0150994964999 8.7532853665376 7.110346747761 6.9749294922773 5.9564666945352 6.8906101491134 7.8132465223178 9.8393801133587 5.8325850712231 8.7085358200166 9.7124628211498 4.5854204086323 8.3356424225168 10.608373326378 9.1225604904391 5.9237721029946 7.8432616198605 8.0126205680656 6.7822304664506 6.2306957453852 5.5662482730628 8.9857595647648 8.8770199964695 5.5370362165174 7.5285268366181 7.6825783978659 6.3028168961896 5.847246906783 5.2248345270624 8.8716848403124 8.1564424970381 7.7063203315611 7.0458031350007 7.721308348373 7.2958585910144 8.1966363279798 7.0254612652755 7.6013504506988 8.5606061307088 8.2021763429111 5.3709009844423 3.9573187367494 8.0972329498799 6.0909650096324 8.39263429821 8.6674934674245 5.764260320309 8.6487407284217 4.2608139152006 6.4519322591057 3.8790997814119 4.7040580197408 8.1950266103046 5.8388989569856 7.8212081922971 5.8616394218768 7.9678186170088 7.6999216953191 6.5211349836577 7.7786376501829 5.5586670091549 6.2873869349239 6.8414885724203 6.3439111801926 7.8352402957586 6.0425249112448 7.2103266874227 8.8621762595222 5.6548997906137 5.0938432657093 7.4787048272592 7.0108442053099 10.146597624425 6.4872442930079 8.3578286733634 7.0122011462969 9.186758065362 8.9667153639431 6.0092968353612 4.35402759556 7.7202335967074 6.9518699342913 6.9705006036339 6.9726141277621 9.8437050318684 8.3636503588425 5.4656499787157 7.8832189555024 8.9282242713593 7.7730644922346 7.9590644531914 7.2763620770857 7.4495790029252 6.7844612430448 4.3796013739785 7.3272187759358 4.5754651219069 7.8211063142192 7.3822763252127 7.627508855009 6.1216136580005 7.0680635905492 7.5040274615889 7.3473592849925 7.2726580021627 6.2448865977174 5.1547920371751 4.2826771478373 5.3335269742401 7.104684346677 8.9466742424529 7.2660201495694 6.472202113552 6.8617539949762 5.6999095271983 10.57651563591 5.6613284676544 9.657890926494 8.2986679386469 4.0603958287694 8.2036588761515 8.2043225701348 7.3824133850658 7.9132518778367 7.052012582487 6.0932461201154 6.0819534457651 5.7146326234175 7.012537552407 7.4175371827911 4.2765999489148 5.2565539473293 4.6326806245963 5.7041916293489 5.0668217763248 8.3850369714672 6.0920334324281 8.0301254237572 4.997023292026 5.2145689363931 5.64011309555 7.7220383875274 4.6972868127406 4.6225281603613 6.6602982950853 5.5419194491809 4.0204288572396 5.9480103406833 8.7679543298329 8.5065560056545 6.8838526544215 4.8511517500356 5.3224831676506 4.8431211860374 7.3514117611438 6.7477603466253 7.2603717107047 6.8435437948306 8.1534322171705 7.8026949544117 5.8127581826714 7.8514867110374 5.9956461418394 7.7235049600352 5.8431732218613 7.3801994869107 7.970607463979 6.5798247300629 7.4096850501038 7.1231444655906 7.3765251376001 7.7395379143348 7.8904896132383 6.8581074723565 7.4815287600823 4.4538725723675 5.7515437325277 7.9049987619006 4.8030298669874 9.0535641378522 6.8344528900513 6.3749939269844 6.3479945444176 6.8982646014807 5.6880322783628 5.1751096485104 5.0994572900841 5.0990173181644 5.2833713438878 9.1627297244179 9.7516356006519 9.3773891280932 8.8833209906315 5.0490092024664 3.789438153395 5.6186949740316 6.007953815316 6.31206234377 5.7074369929938 5.9020975943427 5.3331644080464 6.1333536695225 6.5098104409885 6.2247417932789 6.1704403384719 6.2234091562593 6.553529179663 5.8476916963938 5.380524855866 7.264863683813 7.154854491054 4.8637501140401 3.615411381837 3.4252157835419 4.5628864674898 4.2695944489991 6.7892646871487 6.1903640541132 7.3623760017462 6.4227794268463 10.544560187406 10.317711219755 4.3108831490118 4.7518543529567 7.8103580642489 5.6477774196459 4.1159490791069 4.2126101690538 5.4166613356369 7.0541741395962 9.1111787735134 6.7792327983446 7.2826154012627 5.5909844945142 5.6049710319842 9.3601448979968 5.1231499989328 6.972996480244 10.116111403108 5.3590377238428 4.5160611246189 7.5514611178744 7.7850660779543 5.4274765691318 4.8786470302653 4.7200387159056 6.5096007741384 3.8868819558684 5.3170971488554 3.8418780456312 3.7839112723421 4.3074828369128 8.5653550342829 5.1255795592207 5.7556342048275 5.0000650309274 5.4471140696411 4.7190360222187 5.9555123770713 8.3882289158879 3.9055158743994 6.3320904926419 3.5491148989441 4.2358134489759 5.37970630844 4.6077862197908 4.1102449469993 4.1864151198469 4.6166483309232 4.4751747821591 5.0948762973862 4.0918978945238 7.7011305487491 5.3231436948512 3.9418075573743 4.3467409758204 5.0682749893899 4.9622391579625 7.0341667353075 7.0269600527577 7.4691540599181 7.2939465453062 6.5334013047656 6.9645997752314 6.0659611798999 6.3688015568286 7.1800480423264 6.8715524731713 5.507898568891 6.1605861576326 6.1723480710812 7.2213255291246 6.5399027452581 3.6682355666672 4.9621980295898 5.7306820319768 4.7570139592006 4.6512362737436 4.2336374012908 4.3695663924586 4.0189612581278 4.7727271950202 4.049618686061 4.6685242596158 5.1934953129167 9.8918863974033 4.6636099657674 5.4739223679353 5.3313629296153 8.5977031944794 7.4737873446051 3.9804757140239 3.8939723072233 3.6458361928921 4.6559722238005 5.1891276331897 10.820083439176 3.988877938382 4.4277027975323 4.6746929587029 3.469186730744 4.6058279507717 5.6735523633217 4.9727045058776 4.9239606138582 4.3042056886142 4.9901858307126 4.5764609333705 3.9993067251246 5.0677848787999 3.6637420456533 4.0194801334751 4.7134424364942 4.2952462013737 3.5211421972354 3.9382143949797 3.6286287116567 3.8314377196132 3.7426382749654 3.7266044010688 3.7483918768575 4.6844111130532 4.4367726093693 5.5542759556745 5.7713804491183 3.9552586464751 3.5962819919556 3.5015665155982 4.3164672274904 3.6401522944006 3.6654842599717 3.6789134764111 3.6885389331469 3.7636394988594 4.1623494476274 3.7956970210568 4.4817620628232 3.4838760757477 3.4467903550292 4.3205194943796 4.2336026422065 3.4660869759833 3.453242818413 3.6707497039832 3.7054129304751 3.563742946578 3.6585488196894 3.5872312917106 3.7623208637012 3.7857306274532 3.6029374642204 4.0845182527426 3.6924283395735 3.7440385639261 3.4984053986241 4.2962059416062 3.449939645731 3.5744402785583 3.5059344284378 3.4318245554141 3.4267335185029 3.5722537308506 3.5402644383142 3.7189388099056 3.6702305991436 4.4370909653807 3.539010641629 4.046582561342 3.3881657918852 3.4829465444417 3.8523714611953 4.0830796045381 3.5428595281955 3.5097892098372 3.4107607727924 4.6513754503412 3.9314091852951 4.0948418848679 3.9698779515099 3.5257873535051 3.489789524784 3.4390721124235 3.4512078771945 4.0429711184315 3.5870659936776 3.5763147476062 3.7073405178321 4.1940721206722 3.8346199876292 4.0783144195565 3.3883107648704 3.5124565782955 4.4337145679793 4.1635555168712 3.8128694087683 3.6336842976448 3.9507955584059 3.3847269610772 3.7201034119722 3.6402944992208 4.2375141048832 3.6394193354701 3.7274252962537 4.2139585208759 3.6626622537059 4.2012750595427 3.7516348699299 3.7675236106069 4.1952283906299 4.3274511777186 4.2141961816213 3.6915607626101 3.9627684188193 3.5157932651387 3.4675319197978 3.4968176865777 3.565421856035 3.6967495369117 4.2349573039129 4.0895160115943 3.9912400912207 3.8241464044803 4.0424963024685 3.9704319712685 4.3243223609323 4.4605485954154 4.3348782902459 3.6785463525774 3.6888044793274 3.5831425057287 3.790702326671 4.0394901697285 3.4606774570105 3.617788792591 3.8386980676777 3.6119768119187 3.7680953418238 3.6533118500369 3.9465442332379 3.9939039170721 4.0731061400163 3.917531991202 4.2518414890007 4.2750916908392 4.1555853865573 4.1298745787505 4.0669857927666 4.2373963581547 4.267482540018 4.2439484672987 4.1960548925198 3.8230094890538 3.6160700142 4.3078063429973 3.9493551341184 3.8126443746862 3.965508427636 4.0835873343951 4.215260226843 3.9051601524361 4.0554880985383 4.3057568182436 4.2590317777151 4.2557920310092 4.30925063037 4.03893004061 4.3102873189126 4.2746269331309 
SCALARS 200.00_0.26 double 1
LOOKUP_TABLE default