# vtk DataFile Version 3.0
d-2__ created by libgimli-v1.1.0
ASCII
DATASET UNSTRUCTURED_GRID
POINTS 570 double
14.5	0	0
14.25	0	0
14.386963504964	-0.201738469428	0
22.399299936458	-0.310870122736	0
22.129824335287	-0.229914148082	0
22.126320781198	-0.518791771445	0
8.472303742627	-0.591754876635	0
8.780507935475	-0.76092407121	0
8.82173151259	-0.349253271447	0
18.663262297679	-0.667179415955	0
18.934786529245	-0.453308328646	0
18.636898038907	-0.29588182328	0
4.016904362632	-0.85330676142	0
4.076038737616	-0.331410355179	0
3.713721571226	-0.470767763626	0
1.89953779852	-0.269343012166	0
1.633800503821	-0.203067612233	0
1.644492760828	-0.441295523531	0
4.368408037607	-0.250833874131	0
4.337474161742	-0.544420985055	0
4.67745607622	-0.378433532554	0
1.406172533733	-0.772361039307	0
1.913288206557	-1.218576310882	0
1.90687689783	-0.651895683444	0
2.5	0	0
2.25	0	0
2.347047126858	-0.185539804102	0
1.374000926997	-0.300418771701	0
1.25	0	0
1.114902662369	-0.201591505098	0
1.067401015567	-0.470108640981	0
5.75	0	0
5.699780065382	-0.324747799653	0
5.924584257371	-0.172748359932	0
0.883560935405	-0.231136840652	0
1	0	0
9	0	0
9.117836368049	-0.253904480787	0
2.625577516194	-0.346770599322	0
17.859079774019	-0.943547525024	0
17.535029634209	-1.703182852412	0
18.338018094476	-1.366069799339	0
19.932263871771	-0.826489183604	0
19.881635677668	-0.346204516721	0
19.622287080959	-0.573770479943	0
1.5	0	0
1.75	0	0
23.25	0	0
23	0	0
23.109690227386	-0.220340974338	0
2.75	0	0
2.142562771237	-0.172460438312	0
2	0	0
23.332392704446	-0.202507275941	0
23.5	0	0
19	0	0
18.75	0	0
18.888143078348	-0.195773419804	0
2.90152418742	-0.185685383897	0
7.612175045312	-0.180627982114	0
7.527150943175	-0.401430797998	0
7.881917737402	-0.30462800112	0
25.630635194756	-0.512020961038	0
25.243766894324	-0.80097755811	0
25.758031115142	-0.952821630144	0
3	0	0
28.84859809239	-0.201276387394	0
29	0	0
28.75	0	0
4	0	0
3.835807353334	-0.199536243303	0
3.106904732949	-0.178783649348	0
29.25	0	0
29.092446172194	-0.305987136665	0
13.5	0	0
13.667851890428	-0.185102765244	0
13.75	0	0
3.75	0	0
14.407363653886	-0.441423674912	0
14.125469935998	-0.279652141152	0
4.25	0	0
5.061980176718	-0.407989246181	0
5.335512032876	-0.269401530321	0
5.113979852892	-0.173834924157	0
11.882046000841	-0.812345557852	0
12.478640631525	-1.146569360669	0
12.244190771573	-0.565936619511	0
3.633270844505	-0.195395238442	0
14	0	0
18.378272976509	-0.514977451159	0
5.5	0	0
9.619519097921	-1.16461851757	0
10.030576753886	-1.587265312651	0
9.961661342999	-1.070235523667	0
5.25	0	0
5	0	0
13.157975569138	-0.830425793913	0
13.83833027638	-1.238601004239	0
13.671302359608	-0.710707966059	0
11.325917093147	-0.8366783502	0
11.612143285947	-0.506264798476	0
6	0	0
7	0	0
6.83842404292	-0.188923754932	0
7.11236984822	-0.391746146843	0
6.631875629497	-0.169178192832	0
6.75	0	0
3.21002197083	-0.595267231049	0
3.445510026908	-0.608065324465	0
3.362318141622	-0.306501255187	0
6.120159502895	-0.164221934939	0
4.538525595924	-0.906226152762	0
13.233775457127	-1.737244787017	0
4.5	0	0
16.138065841822	-0.472802517973	0
16.126746690205	-0.221608117926	0
15.859319180798	-0.326402762318	0
26.080401003391	-0.227842452866	0
26.25	0	0
26	0	0
3.019224421113	-0.401469974918	0
8.234901607028	-0.35771789179	0
8.518285578354	-0.242327591839	0
8.328777073389	-0.153008859619	0
7.25	0	0
7.400656881666	-0.195280611572	0
7.5	0	0
5.385509485898	-0.709154879541	0
5.948697127931	-0.745234910621	0
8.75	0	0
8.5	0	0
8.25	0	0
2.214249105773	-0.404278959534	0
2.896561357202	-0.792481120253	0
9.25	0	0
4.920911116561	-0.192028847294	0
9.651670336652	-0.200847798694	0
9.849824537955	-0.19917205686	0
9.75	0	0
10.095049354068	-0.315754204277	0
10	0	0
3.25	0	0
6.738406513564	-0.710129601907	0
7.121614580011	-0.943026074581	0
11.345829942703	-0.314788260019	0
11.25	0	0
11.104427225455	-0.188863495516	0
6.052412255932	-0.372556729023	0
6.373371846535	-0.274163514827	0
10.25	0	0
10.380281579003	-0.241092027437	0
10.5	0	0
10.75	0	0
10.909079077441	-0.189427130481	0
11	0	0
6.25	0	0
6.5	0	0
4.75	0	0
3.5	0	0
10.672815698565	-0.318467932684	0
10.772487906066	-0.787092734739	0
11.020900486567	-0.439266778492	0
8	0	0
7.75	0	0
11.5	0	0
11.619450354737	-0.231443672836	0
11.75	0	0
8.139317726831	-0.163309591658	0
12.25	0	0
12.158949464947	-0.235415698299	0
12.412455385193	-0.275030800337	0
12.929165084344	-0.221336108042	0
12.686337592177	-0.258437422252	0
12.900449535554	-0.462768612232	0
12.5	0	0
9.405755833308	-0.325979504745	0
9.111697192308	-0.594170467817	0
9.457257345083	-0.753685223931	0
18.101369157139	-0.618560521812	0
18.336839281097	-0.861122419318	0
10.385948631267	-0.570640149046	0
9.5	0	0
13.411260455969	-0.342646276848	0
12.643108055516	-0.590179775368	0
13.137744715761	-0.195204172124	0
13	0	0
21.25	0	0
21.358341816502	-0.326561417551	0
21.5	0	0
13.816492716597	-0.40394453634	0
20.25	0	0
20.423452336785	-0.313445603959	0
20.5	0	0
17.789350393153	-0.390447709085	0
17.987794057246	-0.401472255242	0
17.881276545163	-0.206424156589	0
19.564465692234	-0.270867872644	0
19.290725118801	-0.49926248604	0
16.392319441256	-0.29915360323	0
19.443730892406	-0.923508713428	0
20.457987075478	-0.803203365193	0
20.167450719332	-0.505159975143	0
0.103762538371	-0.253013629949	0
0.267057015134	-0.483604909932	0
0.374713194419	-0.2320817565	0
13.25	0	0
17.415572543912	-0.230682214253	0
17.5	0	0
17.25	0	0
18.108153655084	-0.208141099276	0
18.25	0	0
18	0	0
15.75	0	0
15.544586046819	-0.246453491997	0
15.122708481244	-0.193620038745	0
15.25	0	0
15	0	0
19.75	0	0
24.149237782749	-0.319013340846	0
23.842766599446	-0.577371105011	0
24.183995039967	-0.73159476451	0
13.871646321742	-0.17394291424	0
23.862588150518	-0.245417872715	0
16.84024277193	-0.203626765466	0
16.704049384397	-0.435508179396	0
17.112673188265	-0.38804641709	0
24.75	0	0
24.832880292394	-0.290571430318	0
25	0	0
16.40158555625	-0.755912194683	0
16.850299990829	-0.757941865332	0
17.75	0	0
23.567455674596	-0.325197491724	0
16.25	0	0
16	0	0
22.645812614293	-0.197864648876	0
22.75	0	0
22.5	0	0
16.75	0	0
17	0	0
24	0	0
26.914424714815	-0.337869958787	0
26.621963281699	-0.624626679172	0
26.977877660759	-0.778408201088	0
26.622424322919	-0.264588309935	0
19.34462271879	-0.199329831305	0
19.25	0	0
19.118057075065	-0.225686869553	0
19.5	0	0
26.75	0	0
27	0	0
27.5	0	0
27.604422363523	-0.298869962794	0
27.75	0	0
17.650384190064	-0.227839036584	0
18.343198956448	-0.236734208617	0
18.5	0	0
24.25	0	0
20.143897114391	-0.233773711865	0
25.5	0	0
25.25	0	0
25.344389320279	-0.31693710653	0
21.059546193318	-0.24845941382	0
20	0	0
25.842927934822	-0.248287716678	0
25.75	0	0
25.613904645132	-0.216025146631	0
21	0	0
11.763551406169	-1.481607093928	0
30.981104050195	-0.5526690913	0
30.873880294509	-0.217692518774	0
30.706626759758	-0.34945139905	0
20.75	0	0
20.85240828135	-0.178025243856	0
23.75	0	0
20.66289882074	-0.189089155251	0
30.204950808504	-0.791758966623	0
30.715535843381	-1.149995259266	0
30.543724897762	-0.572259098027	0
30	0	0
30.180216671806	-0.343473673313	0
30.25	0	0
23.229584388362	-0.458653998547	0
29.5	0	0
29.623391954444	-0.322069028408	0
29.75	0	0
21.618913855927	-0.233585823579	0
21.75	0	0
29.348490380579	-0.521100538161	0
29.36294710412	-0.230601226356	0
22	0	0
22.25	0	0
28.25	0	0
28	0	0
28.129259193923	-0.314252106503	0
28.44374413871	-0.484576386004	0
28.100199615755	-0.812038297775	0
28.649230646972	-0.871769248311	0
28.618403654115	-0.227691192115	0
28.5	0	0
28.387848605749	-0.205892081491	0
29.054768525933	-0.708603081552	0
29.344906532636	-0.846887322836	0
26.327430876245	-0.35930637997	0
10.349120516034	-1.04150119828	0
10.894920134778	-1.514321070539	0
24.59640839418	-0.191760546865	0
12.75	0	0
24.5	0	0
13.102881121377	-0.411296235356	0
25.099388239946	-0.214879887129	0
25.97986022697	-0.52841375324	0
24.398993403151	-0.196312410538	0
17.860840746535	-0.577367743328	0
17.566481510048	-0.529340016102	0
26.5	0	0
16.637148248735	-0.188015807345	0
18.183918302467	-0.396443618316	0
27.159348252167	-0.205297590358	0
27.357530053515	-0.198815038154	0
27.25	0	0
15.060354649709	-1.112587998155	0
15.51532665618	-1.043792149387	0
15.178150912169	-0.713100616689	0
10.051363365948	-0.719159376333	0
14.661248691948	-0.27865166374	0
14.75	0	0
27.868836823455	-0.217301839861	0
31	0	0
30.75	0	0
-0.020273477909	-1.415389842481	0
1.054972770973	-1.487485199502	0
0.512583677021	-1.0438154777	0
0.75	0	0
2.361419414365	-0.794513604096	0
29.890297721653	-0.2433406165	0
30.473599299501	-0.238575611274	0
30.5	0	0
30.660802173874	-0.161931182737	0
28.783812899585	-0.467926883932	0
4.937022539393	-0.72440615077	0
6.696914540879	-0.380672503721	0
7.434272221796	-0.695675918868	0
15.339606453815	-0.166204802571	0
15.281953315711	-0.388999642276	0
11.893544445085	-0.335972898148	0
12	0	0
9.753796445798	-0.478866225926	0
7.720012958977	-0.638314519759	0
21.871398197179	-0.313006985103	0
21.615176662754	-0.521922347305	0
21.856785525528	-0.665128848631	0
20.792152536902	-0.448319093295	0
21.109577821412	-0.527879642114	0
21.360297691811	-0.734200004244	0
15.547854961707	-0.580173571081	0
24.496861814148	-0.467031445896	0
25.067351422649	-0.463427753535	0
24.81263825963	-0.684738154192	0
22.865620821195	-0.218348593093	0
23.443705587002	-0.773171720633	0
27.277617447467	-0.489224417775	0
27.863714790534	-0.471681393437	0
26.239117668995	-0.863279739365	0
29.896797054636	-0.547765129844	0
29.612773839625	-0.699757135752	0
29.867172666547	-0.87444432816	0
29.610354212963	-1.521444655905	0
29.59548165142	-1.071765512911	0
29.115129171034	-1.220660174798	0
31.345359428525	-0.458952144926	0
31.144859415042	-0.241304201582	0
15.919565295974	-0.746550096707	0
16.063006820294	-1.289595303187	0
16.5	0	0
14.900855313538	-0.178071167744	0
14.161016743654	-0.72559708689	0
19.011498044983	-0.834202892304	0
16.760433281999	-1.263698818643	0
17.280361389946	-0.931704507314	0
-0.627742252535	-0.296285438777	0
-1	0	0
-1	-0.5	0
0.625738545692	-0.228405936136	0
0.5	0	0
3.313957665883	-0.865581185485	0
3.619156095452	-0.800599314657	0
[...]
CELL_DATA 986
SCALARS 100.00_0.83 double 1
LOOKUP_TABLE default
7.9386733054864 9.3605513850875 8.0802726290866 7.2172982225383 6.0478869379127 9.4685310102797 8.0022031183723 6.0027214768378 10.791623751702 9.2637699554889 8.378740068176 7.3553512866551 8.519473775805 14.268672809251 10.666867135679 9.2187269493502 3.700791370963 8.938023726544 10.274679779248 10.578063726176 10.571309661891 11.078165150739 9.8410125745805 9.9740679894228 19.554362415514 9.3789479571705 10.205095461987 6.967927563399 9.1057482238941 10.573517502572 7.5560764582594 8.6445900118394 10.753670368124 10.22170892902 7.1170822251318 10.415830748938 9.1252967073191 8.2033796676865 4.8161292585891 6.7976042198825 9.4238787040655 5.6208452751072 8.3811026063246 3.9372483043431 8.0354418400807 7.7500770425651 6.4376225354224 6.6132060555689 6.9880329451809 9.8702591549291 9.9497822852993 7.8015808751435 5.794056759318 7.6970982545175 6.7094110445368 7.5767221611324 3.9373450488895 10.297903853377 7.7435554573711 8.1056140475692 9.196884841522 8.1492558911206 12.460750497942 10.929030604964 16.728616917356 15.378184147665 6.90335816638 6.4277585691411 11.218806591213 7.530134746182 12.405383774071 12.571240234157 8.6877392074247 12.293108253355 10.420628110075 6.8940082072929 19.329392412565 8.714540719768 12.797977296816 12.162521610092 8.5228471793168 5.6562856262817 9.4195821855159 7.0813774209373 9.7833775006397 16.339093610789 6.25816735271 8.8896480300028 16.466279690946 16.187291489235 8.4752758787556 10.072528587078 8.0429955247911 7.8234081511072 9.9520387986631 11.756364494972 10.975512078853 10.502272010284 12.999003538639 8.5909427248695 13.974688283936 8.1212723281693 9.2552374157587 14.282602174524 6.3184230331005 4.8568425234042 9.8010392868537 11.693958538119 8.8788934937951 13.27839660676 7.2983824514568 11.638350273455 10.355007205176 6.8338292233996 10.386736140149 10.7031390894 9.1374192089353 9.0309094857304 9.506830686635 8.0420191885264 7.7974433763647 11.197255422496 9.3978973500263 6.4401536731368 9.5635575519577 9.4714241611835 7.0413359270856 6.775894600789 9.9496319884454 9.4552766618572 10.175141954769 8.8870604264009 16.815498427625 8.4476889292817 5.9080865846532 11.027468645038 7.6455644531061 17.704489917383 15.607071320354 8.5341122739715 10.731029691076 8.7805441639835 9.0576463691811 13.707432823645 35.827884352958 23.683466072539 8.7532708992455 5.6622876642905 11.102161140069 7.2079510236 9.4219117695147 9.6753309539897 6.9552059281425 8.9477727777848 16.059993610747 12.474259560272 12.595374044246 7.2581307537615 6.2656244873729 7.9806267800713 10.720001345599 9.7876355393475 6.9390301669948 10.80604149181 11.950074093081 8.1250574125509 4.8136448486235 8.1492139121895 13.131503248717 14.709487629507 16.178060911855 7.7855823012358 5.4994914961781 6.5560479126326 9.9064715797146 14.937467778396 13.239998411969 9.2865112363211 10.147916404905 12.049596314045 10.478561803512 11.138221815177 11.399756826891 6.9414172415043 7.2409282503046 11.613282104985 12.323588205955 10.594636931638 9.8500337314646 7.0406448010519 7.8559496181144 5.2932677843464 12.16341068702 4.6523481026375 11.627420162575 12.198730489014 4.6447905234121 15.67180760191 10.570514946762 9.2554215567887 12.194884320498 9.9127644894783 8.1555245364441 8.1255477283649 10.662214669569 6.5416324996025 8.7952455904468 12.52297454676 8.1168184857135 11.748251635063 9.4309943546053 14.102877961527 9.57519215465 7.1224885880316 6.0676062725249 5.8583418956579 4.4072294783568 8.5004733950522 4.8788762342307 9.2413149557231 10.585482611461 9.1522229505933 14.64514056127 9.5452306475022 15.93250806405 10.850612547234 10.855185143287 18.760667534787 8.6038304088332 10.342292677593 9.8795149337309 4.9709095856284 10.256277890685 10.417754625112 7.937457735041 10.919260742 9.2274596581559 6.5067049701405 10.884151732347 8.8304003677739 6.8098338041531 6.5894956634449 11.023092113683 7.9289361418067 8.3951266151103 9.3728253132758 6.6555575626544 8.9328992115406 7.8861363617899 7.4756867731037 6.7527454668302 8.1205785018222 6.1107726513987 10.534069536907 11.191502116991 6.670559469417 9.0005080574336 9.7914820554892 8.0566257479949 6.9196924692879 8.1353226501787 8.1042985653385 9.3768449546283 8.5659281059411 7.8685978878309 12.839193227215 8.2713601377102 9.4718393897543 7.8124975355071 7.4919278861885 7.9171363475745 10.270984838764 7.5580568732989 6.9985740050406 13.465179833202 12.940024345474 7.0528809293558 8.5188017986309 9.5082788724104 8.3041494701101 8.2258113861899 9.4647977395417 13.92232777323 12.566266524079 6.0651928433193 13.154197521997 8.7513875517834 11.552623276206 11.640766614578 10.09924837808 8.9194688981579 7.8869170719064 7.4332744413388 10.10387191034 9.4831179784489 16.489004869287 8.0767647862469 13.347972106151 19.564143307146 9.6628139897202 5.6673210697398 10.181976029036 10.453258055916 10.352112243111 5.4462920099374 7.582470967076 10.311831745773 9.4323631368969 8.7539828650474 10.670789908938 10.338370128211 9.6178447827849 6.5267700365187 7.6596780680517 9.6641740215573 8.2562060491327 14.232953010395 7.5588807203805 6.9334666925763 10.705945290558 11.381811714888 14.028386984535 6.4244065762111 6.2489978023066 8.8840107683169 11.207028052298 12.587107770192 7.4019818720627 6.156899344371 4.4029400891413 8.3388441980662 7.5663590850198 8.3622892188199 11.64837494543 8.80432083841 10.234785035005 8.7784320695164 13.054694056185 8.7997525290484 10.845230322609 4.0716134825142 4.5590700271542 10.342236305526 11.676660047511 12.143605341453 11.412086771375 12.044004345417 14.053809766433 13.764186714061 5.9894095359188 9.5367176185687 6.7099561802438 9.3402088133728 4.6820120324542 5.8844532518043 6.0861090456463 5.9962678819007 7.6085953427831 6.5494617809682 7.7718456415521 7.0207964027256 4.988748752207 7.4943340491993 7.8263321027389 8.9076956250071 6.4774818929715 5.7814639169486 4.862976972987 7.0386268095145 11.27606070834 10.344969756419 7.0094267296941 6.135450618344 5.4612258845463 6.5271682728105 7.4950492218027 6.3975774380279 13.527355894748 10.868462096079 5.0610694960062 4.5666373371946 6.0773411764258 9.3634034427881 7.7867958736437 9.6654471279116 18.332764605855 8.9431089308212 10.727477989836 6.4506836037468 14.891080523857 8.7181793276168 7.2527391146982 4.7157739985901 9.6932351915654 7.3296242700162 9.5417097876453 5.9696889764732 9.4114773290714 9.0928076790438 9.6752760161457 12.376219048193 12.267375442287 9.723245018231 6.369488361486 5.1186280157947 15.296942581754 4.9707635129035 9.8693557398109 10.485932643499 7.8925956415829 15.479371537298 7.4250274809771 8.3292641092931 7.3779309455527 9.7991501373718 6.2808575024498 5.6379719686287 6.9085803249508 4.6568719175962 6.1730895059353 6.4774420442662 13.554199347284 10.403499890261 6.2409734797723 7.8614451137279 6.610971020286 5.3612400437098 6.8156085950357 8.5865489896865 7.5848178639246 8.1258639907705 11.800976201945 10.798749946835 7.9446883726757 8.1934287843286 9.3115672419129 4.9046744299312 7.172038043316 4.6292231973172 7.5259197007449 4.7615134618399 7.1192766285437 11.847902106986 10.775666689319 4.7625032325352 8.7265080174341 3.6511749182935 10.837182546336 5.7866232951459 6.614054257811 9.150039732604 11.824107415746 10.342328403546 6.6533561171671 5.3545449810237 3.5440539966812 5.7479632320908 10.2332051932 7.9301909312512 8.1376290590038 7.4570786327728 7.7394863247837 8.0902473849172 6.7666262783054 6.6695607206497 4.5144499239459 5.6410693082889 6.4754031361321 5.1694776913389 4.583804242255 5.2693561655089 8.4103830947594 6.4079636437253 4.5342461410655 4.103452134171 11.327108025174 7.8351377669135 6.8661950941352 6.4422868704528 4.9007353766898 5.9923319186367 4.8248940062289 4.3915250515474 12.735185785255 8.7358590839442 6.6014767452415 7.2017087085507 12.198990354307 7.9164490385973 7.3670310760923 3.9905986596318 9.2957384175093 9.205628786225 12.82933659734 5.6421209560479 4.7954515486944 4.3721678381354 3.3435886666161 6.361159833435 7.9235801535621 5.4844089542969 5.7974693906969 4.1655684373398 5.403126980641 7.7952389230497 10.117791467239 4.7250372394251 10.538639632524 10.281447348527 3.4369661450935 9.528294023338 11.625793879643 9.572409897387 4.5049338303526 8.8803248354286 6.4071406295121 5.6142966264856 5.2279582695223 4.3141748890327 10.962895671776 10.984159614258 4.1011068979682 8.63904788933 6.022588231321 4.936231212583 5.1429164051354 3.8338558790771 10.98930905107 9.6093797771192 8.5633336966961 6.2476938145822 8.2542071854418 8.1102644786468 7.847194242384 5.9667973546061 8.1162877616597 11.345491840452 10.148592768595 4.7098316842727 3.513368800677 6.3563283801185 5.5646049452461 7.6635056359992 11.161425325015 4.8578699239337 8.5755148154171 3.3281330049943 5.1600693880248 3.2980455077587 3.8889129829543 7.8949661973625 4.6401522446943 7.3016248021684 5.1522014601108 7.33423668489 7.1090116968672 5.8155869887671 7.1406138285173 4.9293229264651 5.3784761581287 5.7844453405426 5.3075388376926 7.2803031332923 5.3968060844021 6.6594936050753 10.447464535251 4.9427376666293 3.9822049473962 6.2833108205051 5.6975872815689 11.584476016763 4.4655673340067 8.9137678149464 6.9324309528585 9.3834167416386 9.5328462928739 4.9625183615982 3.220389862239 8.082084438004 6.1855982300173 6.0689107936308 5.8489651957797 12.760114083177 6.9811215470374 4.5356943307218 6.0957494400953 11.820851005527 8.3838953633667 8.7486419142819 7.2715523338645 8.6990932108842 6.6945254246231 3.5200900350154 6.7352705762979 3.7014505090079 8.1993962429686 6.5877295569999 7.0000337877305 5.4755914717845 6.3763751234683 6.69770452685 6.6962700536502 6.7432844498948 5.2536002496184 4.2619012728979 3.6256958405957 4.5859464654161 6.3243295295043 9.6318305288976 6.9105410300171 5.8173439438429 5.6031700975005 4.5706897782918 9.7993701194202 4.504978657944 12.952789982737 7.0532648638264 3.5694654641291 8.9231118721562 8.0840269895686 5.281257744161 8.4280458324025 6.9688881691286 4.9615656922282 5.2999015757069 4.3598290507234 7.4636664262739 6.771428664433 3.6863816184216 4.4474869558805 3.8695229804873 4.7359969584366 4.1316683994014 9.7806911065346 4.2892153118181 7.8123945504454 4.0666537956751 4.173386910298 3.9090136491667 6.5318772397283 3.8670182011662 3.8852056948177 6.1226567566769 3.8125584378688 3.3402946693975 4.9903694211559 10.0952339148 8.4563289985378 6.573844433217 3.7785839631755 4.0403660613603 4.2738325680231 7.8975765458108 6.9020762859767 7.4052934560764 6.1514152921706 9.4062223288589 8.4498069580154 4.7725093820461 8.7470416944057 5.0471399053239 8.4211203954504 5.3956062018443 7.7765873436532 8.9720870477426 6.5546179243676 7.982131566363 7.4371259592333 7.9529343884596 8.589332788962 8.9011321886742 7.029698449004 8.143785508566 3.7714416158096 5.1912777068695 7.4474521991275 4.1917329216671 8.8623747975129 6.1145534808359 5.1412790487106 5.2603031471414 5.0779435930216 4.3451987841343 4.472559063253 4.3298543938226 3.9951892557234 4.3662292695312 10.769366735536 6.9064533672841 9.9007839684939 10.074052219769 4.2222489901652 3.347231503747 4.0979262941594 4.2830422525789 4.9894134263225 4.9113625072577 4.8396240577871 4.8040010022553 5.8277093795026 5.7039059448057 5.8215067332741 5.5469962875326 5.9543117936798 6.1037228998526 5.2786509716299 4.8161200812437 7.7489282743951 7.5498577391252 3.9529455124664 3.1337934018464 3.4500059522173 3.8144579947417 3.4869648668725 6.2415682979768 4.6370322692989 5.8594904310542 5.7025706972373 24.072363941862 19.813584642655 3.2979116994857 3.9748857323495 6.4494582792138 4.932609540091 3.0368064097305 3.3632974739185 4.4287308498649 6.04324169548 10.165457573125 5.1590286556153 6.5932317964851 4.2878993972966 4.2408972287757 9.1375105201173 4.317548314475 6.3501942229522 8.0916437203993 3.9324793556294 3.6189078627906 6.8689944977982 7.4364285639046 4.4758109639923 3.5409345911925 3.8961230147638 5.6185675765575 3.8333803216121 4.2794940967852 3.4268824847362 3.3701148871223 3.8300396355803 8.8728400761735 3.8221343135166 5.0590986092167 3.8753712184168 4.9773502181558 3.535463444231 4.2849766280864 8.5369347533088 3.2715422939387 5.1656639886695 3.3288218575404 3.3345939655 4.4855392579051 3.3703060561657 3.4806267978969 3.3756718795491 3.7647316132906 3.5173520016007 3.7248308258473 3.3177385585995 6.7208745115373 4.3914823094074 3.3027341511488 3.7970918457019 4.4244197384885 4.1306688593248 6.3827833028907 6.5185957550694 6.8937590617585 6.6082015114636 5.8173778987842 6.2607307279253 5.3613410292418 5.6825673469111 6.5334562035629 6.1934322086236 4.9102853718638 5.45583281895 5.5189655181699 6.6065594158886 5.9007438796447 3.1971216619524 4.0092096262922 5.1079026448428 4.1336314460383 3.92842796527 3.4743892239587 3.6400991326026 3.0931507312517 3.867385360413 3.5349615155196 3.774424954841 4.2191888327596 11.699861374532 3.7628489040667 4.315692051088 4.1768664989065 11.42416886386 7.7010489567203 3.4143422022896 3.3653189492092 3.3550357922697 4.0607857037654 4.400671432933 27.083706225469 3.3831421455419 3.4816499623642 3.7946382827488 3.3983174674357 4.1955287559233 5.0406209272321 4.4332362379705 4.3297352824151 3.235737210896 4.35307884476 3.6722747018296 3.195761627449 3.6252255902752 3.2911687302272 3.1871030809578 3.7924716665038 4.0027175256175 3.3363015455352 3.3988521733703 2.9186001386536 3.0659683215705 2.9045547971589 3.2998877182897 3.4271662230416 3.5328444305993 3.7131359760418 4.6942877340857 4.5947602971713 3.3033014854011 3.2611701273445 3.3364329683139 3.8124286481735 3.3316697326285 3.1844990885833 3.3854859519536 3.3493656046693 3.2727866451275 3.274013373002 3.0842727155093 3.8639504047758 3.2429551922622 3.5260119677993 3.5872616331049 3.4500418711229 3.3186101461582 3.2581337806433 3.3990357040466 3.3859827250326 2.9885730066722 2.9260058825491 3.2167432824303 3.1449264748023 2.9984535151926 3.296654427214 3.3461569467848 3.3259016026457 3.4621072628453 3.3761385504281 3.8470623455686 3.3527645475535 3.446158320923 2.974419178211 3.1459406446262 3.3025773216369 3.1256601046166 3.32276617217 3.1676812910061 3.3988409784292 3.9151177601038 3.3275971518359 3.4974140219395 3.3453661447093 3.3657303480019 3.2794519262041 4.0093829835484 3.5857091286562 3.4799485110678 3.3107361545203 3.9728682340589 3.4162402975166 4.2954022757001 3.6349295052953 3.4174887217808 3.532948860126 3.5546052006306 3.1228095123583 3.4786980717946 3.7554994000194 3.6795698553939 3.5701719450693 3.4829957777196 3.3541821241506 3.823801855449 3.3962887000207 3.7587230493335 4.1651658855506 4.0008361278884 3.8116783833953 3.4293304605293 3.9950646921957 3.377192834767 3.8010723328163 3.304475890382 3.8001108698319 3.6238993932537 3.901345490498 4.1382726304022 3.6105632006925 4.0824263680789 3.8342016011854 3.7881623100688 3.6760238907307 3.777294126671 3.873033877511 3.9707427989501 4.2153985665096 3.5454784701346 3.6808084844641 3.5478077359167 3.5431185999195 3.7373685976908 4.009485359423 4.1227131818638 4.0339070486654 3.4776250182644 3.7966584110518 4.0824517571923 3.9253622076566 4.285257503293 3.9942865326661 3.7495719975874 3.6673861429292 3.6812649195493 3.8457896347224 3.8895472997333 3.5144222372056 3.8209210761984 3.8751542499996 3.657611130916 3.8245419875328 3.6291510952783 3.9635660553275 3.971499246488 4.0884250783834 3.9713942838332 4.2703158136775 4.2173307842316 4.1289141746774 4.0894796783108 4.0690502790215 4.1967611637988 4.1987526024207 4.2119995501523 4.184893651573 3.9794295708471 3.5846654001042 4.2574798132934 4.1296454164889 3.8769829124955 4.0097195487864 4.1542815108791 4.2105788321219 3.9640920235871 4.0839438158472 4.2941503498178 4.3090668146709 4.3415781724586 4.390398152977 4.2264930971131 4.4141070453959 4.4034174935193 
SCALARS _Attribute double 1
LOOKUP_TABLE default
0 0 0 0 0 0 0 0 0 0 0 0 0 0 0 0 0 0 0 0 0 0 0 0 0 0 0 0 0 0 0 0 0 0 0 0 0 0 0 0 0 0 0 0 0 0 0 0 0 0 0 0 0 0 0 0 0 0 0 0 0 0 0 0 0 0 0 0 0 0 0 0 0 0 0 0 0 0 0 0 0 0 0 0 0 0 0 0 0 0 0 0 0 0 0 0 0 0 0 0 0 0 0 0 0 0 0 0 0 0 0 0 0 0 0 0 0 0 0 0 0 0 0 0 0 0 0 0 0 0 0 0 0 0 0 0 0 0 0 0 0 0 0 0 0 0 0 0 0 0 0 0 0 0 0 0 0 0 0 0 0 0 0 0 0 0 0 0 0 0 0 0 0 0 0 0 0 0 0 0 0 0 0 0 0 0 0 0 0 0 0 0 0 0 0 0 0 0 0 0 0 0 0 0 0 0 0 0 0 0 0 0 0 0 0 0 0 0 0 0 0 0 0 0 0 0 0 0 0 0 0 0 0 0 0 0 0 0 0 0 0 0 0 0 0 0 0 0 0 0 0 0 0 0 0 0 0 0 0 0 0 0 0 0 0 0 0 0 0 0 0 0 0 0 0 0 0 0 0 0 0 0 0 0 0 0 0 0 0 0 0 0 0 0 0 0 0 0 0 0 0 0 0 0 0 0 0 0 0 0 0 0 0 0 0 0 0 0 0 0 0 0 0 0 0 0 0 0 0 0 0 0 0 0 0 0 0 0 0 0 0 0 0 0 0 0 0 0 0 0 0 0 0 0 0 0 0 0 0 0 0 0 0 0 0 0 0 0 0 0 0 0 0 0 0 0 0 0 0 0 0 0 0 0 0 0 0 0 0 0 0 0 0 0 0 0 0 0 0 0 0 0 0 0 0 0 0 0 0 0 0 0 0 0 0 0 0 0 0 0 0 0 0 0 0 0 0 0 0 0 0 0 0 0 0 0 0 0 0 0 0 0 0 0 0 0 0 0 0 0 0 0 0 0 0 0 0 0 0 0 0 0 0 0 0 0 0 0 0 0 0 0 0 0 0 0 0 0 0 0 0 0 0 0 0 0 0 0 0 0 0 0 0 0 0 0 0 0 0 0 0 0 0 0 0 0 0 0 0 0 0 0 0 0 0 0 0 0 0 0 0 0 0 0 0 0 0 0 0 0 0 0 0 0 0 0 0 0 0 0 0 0 0 0 0 0 0 0 0 0 0 0 0 0 0 0 0 0 0 0 0 0 0 0 0 0 0 0 0 0 0 0 0 0 0 0 0 0 0 0 0 0 0 0 0 0 0 0 0 0 0 0 0 0 0 0 0 0 0 0 0 0 0 0 0 0 0 0 0 0 0 0 0 0 0 0 0 0 0 0 0 0 0 0 0 0 0 0 0 0 0 0 0 0 0 0 0 0 0 0 0 0 0 0 0 0 0 0 0 0 0 0 0 0 0 0 0 0 0 0 0 0 0 0 0 0 0 0 0 0 0 0 0 0 0 0 0 0 0 0 0 0 0 0 0 0 0 0 0 0 0 0 0 0 0 0 0 0 0 0 0 0 0 0 0 0 0 0 0 0 0 0 0 0 0 0 0 0 0 0 0 0 0 0 0 0 0 0 0 0 0 0 0 0 0 0 0 0 0 0 0 0 0 0 0 0 0 0 0 0 0 0 0 0 0 0 0 0 0 0 0 0 0 0 0 0 0 0 0 0 0 0 0 0 0 0 0 0 0 0 0 0 0 0 0 0 0 0 0 0 0 0 0 0 0 0 0 0 0 0 0 0 0 0 0 0 0 0 0 0 0 0 0 0 0 0 0 0 0 0 0 0 0 0 0 0 0 0 0 0 0 0 0 0 0 0 0 0 0 0 0 0 0 0 0 0 0 0 0 0 0 0 0 0 0 0 0 0 0 0 0 0 0 0 0 0 0 0 0 0 0 0 0 0 0 0 0 0 0 0 0 0 0 0 0 0 0 0 0 0 0 0 0 0 0 0 0 0 0 0 0 0 0 0 0 0 0 0 0 0 0 0 0 0 0 0 0 0 0 0 0 0 0 0 0 0 0 0 0 0 0 0 0 0 0 0 0 0 0 0 0 0 0 0 0 0 0 0 0 0 0 0 0 0 0 0 0 0 0 0 0 0 0 0 0 0 0 0 0 0 0 0 0 0 0 0 0 0 0 0 0 0 0 0 0 0 
SCALARS _Marker double 1
LOOKUP_TABLE default