# vtk DataFile Version 3.0
d-2__ created by libgimli-v1.1.0
ASCII
DATASET UNSTRUCTURED_GRID
POINTS 570 double
14.5	0	0
14.25	0	0
14.386963504964	-0.201738469428	0
22.399299936458	-0.310870122736	0
22.129824335287	-0.229914148082	0
22.126320781198	-0.518791771445	0
8.472303742627	-0.591754876635	0
8.780507935475	-0.76092407121	0
8.82173151259	-0.349253271447	0
18.663262297679	-0.667179415955	0
18.934786529245	-0.453308328646	0
18.636898038907	-0.29588182328	0
4.016904362632	-0.85330676142	0
4.076038737616	-0.331410355179	0
3.713721571226	-0.470767763626	0
1.89953779852	-0.269343012166	0
1.633800503821	-0.203067612233	0
1.644492760828	-0.441295523531	0
4.368408037607	-0.250833874131	0
4.337474161742	-0.544420985055	0
4.67745607622	-0.378433532554	0
1.406172533733	-0.772361039307	0
1.913288206557	-1.218576310882	0
1.90687689783	-0.651895683444	0
2.5	0	0
2.25	0	0
2.347047126858	-0.185539804102	0
1.374000926997	-0.300418771701	0
1.25	0	0
1.114902662369	-0.201591505098	0
1.067401015567	-0.470108640981	0
5.75	0	0
5.699780065382	-0.324747799653	0
5.924584257371	-0.172748359932	0
0.883560935405	-0.231136840652	0
1	0	0
9	0	0
9.117836368049	-0.253904480787	0
2.625577516194	-0.346770599322	0
17.859079774019	-0.943547525024	0
17.535029634209	-1.703182852412	0
18.338018094476	-1.366069799339	0
19.932263871771	-0.826489183604	0
19.881635677668	-0.346204516721	0
19.622287080959	-0.573770479943	0
1.5	0	0
1.75	0	0
23.25	0	0
23	0	0
23.109690227386	-0.220340974338	0
2.75	0	0
2.142562771237	-0.172460438312	0
2	0	0
23.332392704446	-0.202507275941	0
23.5	0	0
19	0	0
18.75	0	0
18.888143078348	-0.195773419804	0
2.90152418742	-0.185685383897	0
7.612175045312	-0.180627982114	0
7.527150943175	-0.401430797998	0
7.881917737402	-0.30462800112	0
25.630635194756	-0.512020961038	0
25.243766894324	-0.80097755811	0
25.758031115142	-0.952821630144	0
3	0	0
28.84859809239	-0.201276387394	0
29	0	0
28.75	0	0
4	0	0
3.835807353334	-0.199536243303	0
3.106904732949	-0.178783649348	0
29.25	0	0
29.092446172194	-0.305987136665	0
13.5	0	0
13.667851890428	-0.185102765244	0
13.75	0	0
3.75	0	0
14.407363653886	-0.441423674912	0
14.125469935998	-0.279652141152	0
4.25	0	0
5.061980176718	-0.407989246181	0
5.335512032876	-0.269401530321	0
5.113979852892	-0.173834924157	0
11.882046000841	-0.812345557852	0
12.478640631525	-1.146569360669	0
12.244190771573	-0.565936619511	0
3.633270844505	-0.195395238442	0
14	0	0
18.378272976509	-0.514977451159	0
5.5	0	0
9.619519097921	-1.16461851757	0
10.030576753886	-1.587265312651	0
9.961661342999	-1.070235523667	0
5.25	0	0
5	0	0
13.157975569138	-0.830425793913	0
13.83833027638	-1.238601004239	0
13.671302359608	-0.710707966059	0
11.325917093147	-0.8366783502	0
11.612143285947	-0.506264798476	0
6	0	0
7	0	0
6.83842404292	-0.188923754932	0
7.11236984822	-0.391746146843	0
6.631875629497	-0.169178192832	0
6.75	0	0
3.21002197083	-0.595267231049	0
3.445510026908	-0.608065324465	0
3.362318141622	-0.306501255187	0
6.120159502895	-0.164221934939	0
4.538525595924	-0.906226152762	0
13.233775457127	-1.737244787017	0
4.5	0	0
16.138065841822	-0.472802517973	0
16.126746690205	-0.221608117926	0
15.859319180798	-0.326402762318	0
26.080401003391	-0.227842452866	0
26.25	0	0
26	0	0
3.019224421113	-0.401469974918	0
8.234901607028	-0.35771789179	0
8.518285578354	-0.242327591839	0
8.328777073389	-0.153008859619	0
7.25	0	0
7.400656881666	-0.195280611572	0
7.5	0	0
5.385509485898	-0.709154879541	0
5.948697127931	-0.745234910621	0
8.75	0	0
8.5	0	0
8.25	0	0
2.214249105773	-0.404278959534	0
2.896561357202	-0.792481120253	0
9.25	0	0
4.920911116561	-0.192028847294	0
9.651670336652	-0.200847798694	0
9.849824537955	-0.19917205686	0
9.75	0	0
10.095049354068	-0.315754204277	0
10	0	0
3.25	0	0
6.738406513564	-0.710129601907	0
7.121614580011	-0.943026074581	0
11.345829942703	-0.314788260019	0
11.25	0	0
11.104427225455	-0.188863495516	0
6.052412255932	-0.372556729023	0
6.373371846535	-0.274163514827	0
10.25	0	0
10.380281579003	-0.241092027437	0
10.5	0	0
10.75	0	0
10.909079077441	-0.189427130481	0
11	0	0
6.25	0	0
6.5	0	0
4.75	0	0
3.5	0	0
10.672815698565	-0.318467932684	0
10.772487906066	-0.787092734739	0
11.020900486567	-0.439266778492	0
8	0	0
7.75	0	0
11.5	0	0
11.619450354737	-0.231443672836	0
11.75	0	0
8.139317726831	-0.163309591658	0
12.25	0	0
12.158949464947	-0.235415698299	0
12.412455385193	-0.275030800337	0
12.929165084344	-0.221336108042	0
12.686337592177	-0.258437422252	0
12.900449535554	-0.462768612232	0
12.5	0	0
9.405755833308	-0.325979504745	0
9.111697192308	-0.594170467817	0
9.457257345083	-0.753685223931	0
18.101369157139	-0.618560521812	0
18.336839281097	-0.861122419318	0
10.385948631267	-0.570640149046	0
9.5	0	0
13.411260455969	-0.342646276848	0
12.643108055516	-0.590179775368	0
13.137744715761	-0.195204172124	0
13	0	0
21.25	0	0
21.358341816502	-0.326561417551	0
21.5	0	0
13.816492716597	-0.40394453634	0
20.25	0	0
20.423452336785	-0.313445603959	0
20.5	0	0
17.789350393153	-0.390447709085	0
17.987794057246	-0.401472255242	0
17.881276545163	-0.206424156589	0
19.564465692234	-0.270867872644	0
19.290725118801	-0.49926248604	0
16.392319441256	-0.29915360323	0
19.443730892406	-0.923508713428	0
20.457987075478	-0.803203365193	0
20.167450719332	-0.505159975143	0
0.103762538371	-0.253013629949	0
0.267057015134	-0.483604909932	0
0.374713194419	-0.2320817565	0
13.25	0	0
17.415572543912	-0.230682214253	0
17.5	0	0
17.25	0	0
18.108153655084	-0.208141099276	0
18.25	0	0
18	0	0
15.75	0	0
15.544586046819	-0.246453491997	0
15.122708481244	-0.193620038745	0
15.25	0	0
15	0	0
19.75	0	0
24.149237782749	-0.319013340846	0
23.842766599446	-0.577371105011	0
24.183995039967	-0.73159476451	0
13.871646321742	-0.17394291424	0
23.862588150518	-0.245417872715	0
16.84024277193	-0.203626765466	0
16.704049384397	-0.435508179396	0
17.112673188265	-0.38804641709	0
24.75	0	0
24.832880292394	-0.290571430318	0
25	0	0
16.40158555625	-0.755912194683	0
16.850299990829	-0.757941865332	0
17.75	0	0
23.567455674596	-0.325197491724	0
16.25	0	0
16	0	0
22.645812614293	-0.197864648876	0
22.75	0	0
22.5	0	0
16.75	0	0
17	0	0
24	0	0
26.914424714815	-0.337869958787	0
26.621963281699	-0.624626679172	0
26.977877660759	-0.778408201088	0
26.622424322919	-0.264588309935	0
19.34462271879	-0.199329831305	0
19.25	0	0
19.118057075065	-0.225686869553	0
19.5	0	0
26.75	0	0
27	0	0
27.5	0	0
27.604422363523	-0.298869962794	0
27.75	0	0
17.650384190064	-0.227839036584	0
18.343198956448	-0.236734208617	0
18.5	0	0
24.25	0	0
20.143897114391	-0.233773711865	0
25.5	0	0
25.25	0	0
25.344389320279	-0.31693710653	0
21.059546193318	-0.24845941382	0
20	0	0
25.842927934822	-0.248287716678	0
25.75	0	0
25.613904645132	-0.216025146631	0
21	0	0
11.763551406169	-1.481607093928	0
30.981104050195	-0.5526690913	0
30.873880294509	-0.217692518774	0
30.706626759758	-0.34945139905	0
20.75	0	0
20.85240828135	-0.178025243856	0
23.75	0	0
20.66289882074	-0.189089155251	0
30.204950808504	-0.791758966623	0
30.715535843381	-1.149995259266	0
30.543724897762	-0.572259098027	0
30	0	0
30.180216671806	-0.343473673313	0
30.25	0	0
23.229584388362	-0.458653998547	0
29.5	0	0
29.623391954444	-0.322069028408	0
29.75	0	0
21.618913855927	-0.233585823579	0
21.75	0	0
29.348490380579	-0.521100538161	0
29.36294710412	-0.230601226356	0
22	0	0
22.25	0	0
28.25	0	0
28	0	0
28.129259193923	-0.314252106503	0
28.44374413871	-0.484576386004	0
28.100199615755	-0.812038297775	0
28.649230646972	-0.871769248311	0
28.618403654115	-0.227691192115	0
28.5	0	0
28.387848605749	-0.205892081491	0
29.054768525933	-0.708603081552	0
29.344906532636	-0.846887322836	0
26.327430876245	-0.35930637997	0
10.349120516034	-1.04150119828	0
10.894920134778	-1.514321070539	0
24.59640839418	-0.191760546865	0
12.75	0	0
24.5	0	0
13.102881121377	-0.411296235356	0
25.099388239946	-0.214879887129	0
25.97986022697	-0.52841375324	0
24.398993403151	-0.196312410538	0
17.860840746535	-0.577367743328	0
17.566481510048	-0.529340016102	0
26.5	0	0
16.637148248735	-0.188015807345	0
18.183918302467	-0.396443618316	0
27.159348252167	-0.205297590358	0
27.357530053515	-0.198815038154	0
27.25	0	0
15.060354649709	-1.112587998155	0
15.51532665618	-1.043792149387	0
15.178150912169	-0.713100616689	0
10.051363365948	-0.719159376333	0
14.661248691948	-0.27865166374	0
14.75	0	0
27.868836823455	-0.217301839861	0
31	0	0
30.75	0	0
-0.020273477909	-1.415389842481	0
1.054972770973	-1.487485199502	0
0.512583677021	-1.0438154777	0
0.75	0	0
2.361419414365	-0.794513604096	0
29.890297721653	-0.2433406165	0
30.473599299501	-0.238575611274	0
30.5	0	0
30.660802173874	-0.161931182737	0
28.783812899585	-0.467926883932	0
4.937022539393	-0.72440615077	0
6.696914540879	-0.380672503721	0
7.434272221796	-0.695675918868	0
15.339606453815	-0.166204802571	0
15.281953315711	-0.388999642276	0
11.893544445085	-0.335972898148	0
12	0	0
9.753796445798	-0.478866225926	0
7.720012958977	-0.638314519759	0
21.871398197179	-0.313006985103	0
21.615176662754	-0.521922347305	0
21.856785525528	-0.665128848631	0
20.792152536902	-0.448319093295	0
21.109577821412	-0.527879642114	0
21.360297691811	-0.734200004244	0
15.547854961707	-0.580173571081	0
24.496861814148	-0.467031445896	0
25.067351422649	-0.463427753535	0
24.81263825963	-0.684738154192	0
22.865620821195	-0.218348593093	0
23.443705587002	-0.773171720633	0
27.277617447467	-0.489224417775	0
27.863714790534	-0.471681393437	0
26.239117668995	-0.863279739365	0
29.896797054636	-0.547765129844	0
29.612773839625	-0.699757135752	0
29.867172666547	-0.87444432816	0
29.610354212963	-1.521444655905	0
29.59548165142	-1.071765512911	0
29.115129171034	-1.220660174798	0
31.345359428525	-0.458952144926	0
31.144859415042	-0.241304201582	0
15.919565295974	-0.746550096707	0
16.063006820294	-1.289595303187	0
16.5	0	0
14.900855313538	-0.178071167744	0
14.161016743654	-0.72559708689	0
19.011498044983	-0.834202892304	0
16.760433281999	-1.263698818643	0
17.280361389946	-0.931704507314	0
-0.627742252535	-0.296285438777	0
-1	0	0
-1	-0.5	0
0.625738545692	-0.228405936136	0
0.5	0	0
3.313957665883	-0.865581185485	0
3.619156095452	-0.800599314657	0
[...]
CELL_DATA 986
SCALARS 100.00_0.77 double 1
LOOKUP_TABLE default
8.0870834675007 9.6058521755712 8.2588909555823 7.2747986762917 6.1089090186845 9.545106296185 8.059934261936 6.0209522222079 10.865397980747 9.3756003468682 8.4767555584271 7.4835630862703 8.640667865946 14.503710840562 10.766713580935 9.3656329234507 3.73998151924 8.8923182392922 10.397686430824 10.980565394 10.730674308473 11.135721529375 10.184429787545 10.05970129768 18.649235516953 9.5202529507511 10.370558936978 7.0118250839108 9.2614404187055 10.774388080337 7.6171927225232 8.7422806546154 10.952565903146 10.229520757847 7.1707138052111 10.482561285728 9.1590671946954 8.2787238504252 4.8990820833471 6.8608445406618 9.6116107065842 5.767515387 8.4819162056292 4.0128629153035 8.0645627616655 7.8139224894886 6.5082003555894 6.7380472029196 7.0996968921504 9.9511085790706 10.150548135649 8.1234711078628 5.8580944600337 7.8600174050053 6.7640061513701 7.7379757412753 3.9672726842133 10.316930425128 7.9902411487254 8.4785264666801 9.3968227783472 8.2429219859052 12.602669348179 11.066544544131 16.716481724561 15.337303137229 6.9720602537307 6.4940071741389 11.755302814325 7.6088102158341 12.921715237929 12.579123375288 8.7287040129934 12.433745367146 10.49068241091 6.9533644652227 19.097291294587 8.788526624319 13.113699317907 12.4557363956 8.5812423593109 5.7101524682186 9.6023806967456 7.2189172316248 10.221468643504 15.813007337835 6.4314713222951 9.2740802371109 16.2698226732 16.429671678841 8.5555547426066 10.701472265848 8.1569367232627 8.0483289813913 10.067251715048 12.014083850975 11.352738073782 10.800746041358 12.962951588987 8.7967645286615 14.364693693348 8.4719369569275 9.4874912808095 14.650631997498 6.4990735922376 4.9951653068893 10.087198150726 11.90684778325 8.9920726005674 13.388829423262 7.4837442192667 11.846272794644 10.551876059423 7.1825975926142 10.490991462674 10.974551149871 9.3707808559814 9.1688234404472 9.4946935764209 8.2918443130164 7.7759734699236 11.291344611618 9.4238237131641 6.6163048232802 9.7397372453576 9.6578803298636 7.1253583789331 6.9002186840959 10.121639730317 9.8312859007289 10.43259604074 9.1984374834724 17.18156858777 8.5721878887273 6.0383850213159 10.922077553538 7.8117927825567 17.157848094166 15.388153079968 8.6127598005165 11.0102435745 8.907536348766 9.1608371173269 13.484726406518 33.109903172544 22.477175613974 8.9726785946023 5.7653976609308 10.954441502976 7.3299913873096 9.6499708733492 9.8960878524906 7.1367704193238 9.1989955051556 15.741721656265 12.787439316291 12.637362824666 7.464752981985 6.4930824002582 8.1312851416612 10.967974245254 9.9276210705528 7.2236550776021 11.086968170283 11.780396477891 8.3865894692126 4.8636222834736 8.1668962421815 13.225169281362 14.678981902821 16.061548921875 7.9913264450185 5.5692686515583 6.7150011435428 10.107662821385 14.873150645354 13.064590011982 9.4290490409154 10.24896163624 12.15835128748 10.805072320465 11.160407209148 11.567884686573 7.003777227846 7.2132107445013 11.873651556754 12.37898596526 10.889160354639 9.967797986167 7.1027501500615 7.9674563642163 5.3804111585347 12.261929755222 4.7629697997115 11.627596329904 12.369118554059 4.7153443730733 15.985719171079 10.624250432565 9.3925594772627 12.20212446496 9.9603366185691 8.4975092341992 8.2878971621226 10.845227533791 6.6961637794085 8.979497596642 12.327822930582 8.3280862223991 11.570811468179 9.6954005790412 13.962101390194 9.6968625587772 7.3651711337242 6.28470090087 6.0939525827556 4.4185602388382 8.6289084392319 5.0054047194067 9.3824587873123 10.829290519148 9.31806493388 14.33250394541 9.8104396955171 15.641053419752 10.917318769366 11.002802623304 18.317775560515 8.6555846015598 10.458213827532 9.7721037423465 5.0024904994285 10.498677818838 10.61105471988 8.0240107294603 11.197797552032 9.2961595977938 6.5423781810736 11.009567841067 8.879617802157 6.9520009008919 6.702069600793 11.106245093903 7.9827198222517 8.3705770207398 9.4314030899131 6.7196220957998 8.884207561518 7.9359133094483 7.6048097728678 6.8232085998998 8.2793120085328 6.1648703699176 10.667078799537 11.484750027525 6.7471214712999 9.1729111816746 9.8641653090215 8.2010416243278 6.9912170873903 8.2242213851066 8.186940197522 9.4425029967381 8.6460180159925 8.0253861734716 13.038737097375 8.3612558108965 9.7069307116664 8.1355281553399 7.7119634566128 8.008402351008 10.572243697854 7.6987974133815 7.1828962922915 13.358074845548 12.980134549381 7.248876618534 8.8233975159444 9.7622631376966 8.6223998148193 8.3445330106735 9.791499052727 13.667437145241 12.542500869586 6.2424341877652 13.048030671901 9.0776145833112 11.795728031492 12.01500776279 10.401636128656 9.0411284192099 8.0421859868135 7.5596091984046 10.439239663068 9.5466823007026 16.2597548406 8.206397107873 13.234161027153 19.22883223407 9.8256175061771 5.8256845366878 10.376636444626 10.608444674006 10.424411520621 5.5129095700015 7.750583524207 10.233637004212 9.7353074730364 8.8567170174655 10.696220337697 10.395154626344 9.7552263856035 6.7428555019567 7.818111620855 9.8095931211627 8.3436878859769 13.86397911224 7.661120511326 7.0790665750066 10.923561036396 11.325881048717 13.910944950574 6.6343071103452 6.4324538755128 8.9850575873586 11.190151522142 12.367049155939 7.4738219326341 6.2382631590071 4.431707580661 8.3403497476563 7.6633316339943 8.366650160642 11.72576001672 8.918566950343 10.340849648262 8.7700632324437 12.915212665715 8.870901446678 10.811633836779 4.1077371614028 4.5959500766783 10.76838618726 11.871973350959 12.158973380169 11.441673830083 12.300484831235 14.306583588965 13.405666720894 6.1900577981589 9.7218937888987 6.7026839735835 9.6144394453232 4.7498195718467 6.0114899605897 6.1629029439297 6.0127549030791 7.6769420219988 6.6528316970599 7.8873145263381 7.1179262243585 5.0347928862368 7.5289948047866 7.9092884067134 8.9855963786069 6.5311924456419 5.826343104459 4.8918629132728 7.1261250947945 11.414274834659 10.574615160779 7.2262685319183 6.2105093666848 5.5086435305273 6.6162615718629 7.6122184675513 6.4668251074877 13.554465976179 11.054922878011 5.2271137867447 4.6490790326108 6.2905954176231 9.5087519423407 7.955290696916 9.8364180475987 18.834955146977 9.2107808914948 10.839857951034 6.6102362805874 14.553769171337 8.9345384078809 7.5004552983918 4.8398807398782 9.9707746337307 7.5617708334963 9.9006829012486 6.1849063873613 9.5281481002673 9.4961414427868 9.793638328885 12.419422681034 12.459999340229 9.9412724643731 6.5784032434096 5.2222114041506 15.251754559842 5.0707875071627 10.179208590505 10.589524400267 8.1640918279239 15.286939609812 7.6251271540613 8.5951773199689 7.4818001398934 9.8826452714256 6.4952496146311 5.7776766705256 7.003668723427 4.7475541464 6.3083743287113 6.5267269601534 13.313254535081 10.449921106761 6.3494541656872 7.9143656536743 6.7996518213459 5.4802417518128 6.8904161514411 8.662407482364 7.6272106802934 8.1926753286398 11.743726812403 10.775183356107 7.9954130748619 8.2302268930924 9.2763800697952 4.9551257030775 7.2462465100664 4.6613607772906 7.6606175162481 4.8214681313392 7.1721088288067 11.817752152122 10.811055983762 4.8238515023995 8.7645062536365 3.7057099507925 11.16039003032 5.9311603847577 6.795101062759 9.4142916999006 11.841640272789 10.431080148902 6.6767016933877 5.383731688293 3.5755583997347 5.8880633860416 10.3009245193 7.977251060148 8.2481991466621 7.4943955825897 7.8437985530742 8.146192039928 6.9043152951446 6.7845559967313 4.5474534837038 5.6895400420906 6.564073835408 5.2201858596377 4.6070354224804 5.3260136753589 8.4925765139803 6.4677186128045 4.566666295834 4.1237982539964 11.413180206814 7.9311751865867 7.0353107756944 6.5291750102311 4.9279041569254 6.0648754071049 4.852310017881 4.5113402932508 12.780148586875 8.8256733285649 6.7667337746073 7.3791415850285 12.592450792891 7.9184258824231 7.6014154150861 3.9980763692178 9.2869530451761 9.4181446920364 12.756203138205 5.8256186465989 4.9286153720505 4.385689291029 3.3607218648449 6.4059721539924 8.226579515051 5.6568664240484 5.9134303845751 4.2612798884804 5.5172776935908 7.9771606281083 10.196507403551 4.808391526391 10.476598430635 10.369373485247 3.444446301658 9.543681749793 12.315440155413 9.9314027739946 4.5779492491465 8.9170302433087 6.5859760319705 5.7108881764124 5.2955768974758 4.3721906391404 11.033029717861 11.05133967593 4.1667559583926 8.7077368958382 6.1878628571118 5.0255436122535 5.2008102778216 3.8886519668995 10.929892064766 9.625864475872 8.5531527725123 6.357218856443 8.277944046901 8.2010925442478 7.8930675145108 6.0665370530142 8.1392106089885 11.401708983569 10.228708870521 4.7283217433767 3.508335570262 6.5175324779324 5.5992356452142 7.9211772023074 11.104052637564 4.8805849635863 8.7609918929354 3.3522646087906 5.1691050084796 3.2924792958267 3.9121331872577 8.0977211294557 4.6901216732337 7.4412666480636 5.1676552786434 7.4708983110449 7.2249039489986 5.8768928142223 7.2685158426662 4.9359108587423 5.4184637194156 5.8561879741954 5.3577625695615 7.3539397768652 5.4392679431817 6.7302142922747 10.531580714846 4.9751847882214 4.0153404072745 6.3822371672922 5.7510503341733 11.59307252365 4.5171534361705 9.1552669320042 7.0008999762464 9.3763928535033 9.5676270382302 4.9674623661166 3.2378430407047 8.174449612116 6.3229410409862 6.1554227354357 5.962170136849 12.80346386527 7.160124885113 4.5608517388228 6.2569327203052 11.781634755841 8.4633412505416 8.816107391219 7.3486157632802 8.7504959830865 6.7616400329789 3.5351893260065 6.8473603146931 3.7125517724917 8.3098533085094 6.7105228510843 7.131950267103 5.5308429918618 6.4741967506885 6.827431056589 6.7971726779665 6.8241742964335 5.2949532675203 4.2822844846892 3.631242802612 4.612804621821 6.384994442973 9.7228419330335 6.9778152435429 5.865048400701 5.6481198721156 4.5898392127321 9.9731540582284 4.5655317068284 12.934009018168 7.2711462867276 3.5567086597149 8.9323958739687 8.2807061330305 5.3958641862248 8.5566538289709 7.0603775414326 5.0349448433384 5.3653695301297 4.4282431667705 7.5204616253648 6.8902711315924 3.6816297894208 4.4600036625228 3.8782815650549 4.7589207093871 4.1412293837999 9.8570055239986 4.3715272351971 8.0226084579928 4.0966032112105 4.2270452307161 3.9731903386694 6.655051379943 3.8912750031351 3.8969723201238 6.1444998040855 3.8730808309451 3.3419317969174 5.0773381905695 10.36830588066 8.6008565986994 6.6462568776774 3.8108837253633 4.095601006885 4.2997371194361 7.8970516689941 6.9702060655102 7.4189476958032 6.2047827774177 9.3816898492804 8.4552986626981 4.823393217014 8.7383616768388 5.108035279267 8.4195846993493 5.4121370755299 7.7821919740173 8.9631324075787 6.5653811860523 7.9806022127298 7.4422203785343 7.9521635022868 8.5798495139707 8.8855550061956 7.0373512760642 8.1400978743873 3.7785736670777 5.199469811059 7.5583438193629 4.1905890492499 9.120150908881 6.2497949671651 5.2414271277786 5.3660147541868 5.2019082589221 4.4061847396849 4.5112442942332 4.3660264634492 4.036131466571 4.3986207095334 10.785634139584 7.0986608163645 10.064300869239 10.316584136588 4.2396890341217 3.3539161968849 4.1335023433345 4.3903364954152 5.0727880572112 4.951841010994 4.9090551314365 4.8407484456024 5.8702729900278 5.787394269034 5.8783290122074 5.6088898430139 6.0021794626543 6.1356975688881 5.3206895641696 4.8308300781483 7.7505380439834 7.5530971763115 3.9681677363195 3.127478507188 3.4195836857439 3.8229023814943 3.5041523074605 6.3111338716446 4.7299121802943 5.99090261971 5.7712562633796 22.720414019505 19.022548467058 3.3091265328466 3.9776826977661 6.6493884908214 4.9773938137234 3.0550517380498 3.3866024541947 4.4646931880878 6.1780055643409 10.298279032791 5.2834553279046 6.7000429670693 4.3276170323359 4.322294898101 9.2460543290596 4.3315656217409 6.4444715275483 8.291208810629 3.9380497957523 3.6447692038506 6.9899931188243 7.5398602162709 4.492432081028 3.5874442941351 3.8967275828875 5.6638163963679 3.8168578826695 4.2923831496671 3.4103251810223 3.3605870371268 3.8386052950451 9.1242188559503 3.8758592956952 5.111622034794 3.9090716823485 5.0159482743104 3.5715663493914 4.3735939956872 8.6736354520931 3.2755040165733 5.2424973792351 3.3074123783852 3.3473014553636 4.5384132112544 3.4046048696857 3.4901417315008 3.3795406044433 3.773967277742 3.5217712706083 3.7320901793149 3.3175515146909 6.7886107700253 4.43208933011 3.3147822459868 3.801013827814 4.449663930409 4.1413112173492 6.4635211242949 6.5772873019049 7.0135074029043 6.7125682180989 5.8842932596628 6.3502421087145 5.4013667645435 5.7469127858731 6.6384533274674 6.2820070349559 4.9421181531237 5.5086263763085 5.5524950767684 6.7134024565492 5.9744395340523 3.1911068773733 4.032046284371 5.1289137725486 4.1315597726705 3.9327385664416 3.4860382890667 3.6572536864512 3.10169367649 3.8846848995932 3.5245838902061 3.7899957476124 4.247403484523 11.781904688256 3.7771962754743 4.3602816587429 4.2375240147558 11.800327305205 7.6992245463653 3.4076282055637 3.3513948771128 3.3489196558979 4.0748564637378 4.4294494920446 25.438457667013 3.3887451531047 3.5051091678515 3.8232702104454 3.3723392303026 4.1983044092786 5.0525161099773 4.4466722361017 4.3403675450581 3.2562262401171 4.365605767286 3.6847347061581 3.197850155483 3.6637682100533 3.2744228025749 3.1966011261742 3.8193905816498 3.9970638841057 3.3239812512359 3.3880511186065 2.9188484555119 3.0719866970359 2.9094414926943 3.2928768838567 3.4184647608742 3.5356671707759 3.7027397542136 4.7389066600114 4.654650026462 3.3134892756555 3.2592559524488 3.3161333792052 3.8235147223206 3.3233619077301 3.1828699339334 3.3657725552368 3.331424988908 3.2650919195138 3.2814731686987 3.0832684265648 3.8741084601768 3.2322962707379 3.5010093515167 3.5945584126562 3.4393782889061 3.2936318905376 3.2372471350976 3.3832315274967 3.3671404281281 2.9834119769702 2.9257395197191 3.203918289237 3.1462644658054 3.0000426089813 3.2788476773483 3.360553833906 3.3107553670598 3.4569664566188 3.3483804669291 3.8587418591549 3.330306045846 3.4236387260548 2.9676948987696 3.1309651320021 3.2820155253816 3.1179033897059 3.3102120861301 3.1636094977328 3.3850932912078 3.9118498408723 3.3074261199104 3.4864549754652 3.325890040179 3.3410703366227 3.2748881526265 4.0125828890899 3.5616740021596 3.4564564690364 3.2937401573967 3.983133482717 3.4136891531427 4.2961296242426 3.6245337166015 3.4001844109429 3.5170332500284 3.5296182490006 3.1100864521761 3.4802125690561 3.7340056839952 3.6546112334768 3.5706953383592 3.4857407739863 3.3516626175764 3.8136680794967 3.3724506084834 3.733451311606 4.1836462053678 3.9898874472389 3.8129789591113 3.4119827779975 3.9908326188878 3.3566301932755 3.7802534595074 3.296566915852 3.8097949691281 3.614812254425 3.8911094826816 4.1260740269445 3.5987659864867 4.0709170185601 3.8125006533646 3.7777613098488 3.6828892870736 3.7868637198489 3.8828093693779 3.9540143358188 4.2096953735225 3.5253272105283 3.6517340969474 3.5214986691351 3.5217458733069 3.7208196699179 4.0011400945623 4.1198725254131 4.0248025814347 3.4747969077776 3.8002976357358 4.0834479383828 3.9389168208382 4.3044086737027 4.0087499543909 3.7290944725203 3.6617815919731 3.6559035212503 3.830726462377 3.8767283171511 3.4912460416838 3.8060222421237 3.8674681496836 3.6358095959996 3.8037436665006 3.609887170144 3.9460313834769 3.9553508876028 4.0745787463749 3.9541363736858 4.2722451903572 4.2064058026817 4.1156609042795 4.075589251119 4.0541980592212 4.1856396919316 4.1874440207889 4.2022932266915 4.1756264797393 3.9684209365611 3.5701945735325 4.2691939772359 4.1276320525221 3.8756321295711 4.0105725939799 4.1575516421828 4.2050129098736 3.9478851272573 4.0742905459294 4.2948389776113 4.3148461140705 4.3492451749996 4.398237961007 4.2240695201684 4.4232132522496 4.4106321850626 
SCALARS 150.00_1.09 double 1
LOOKUP_TABLE default