# vtk DataFile Version 3.0
d-2__ created by libgimli-v1.1.0
ASCII
DATASET UNSTRUCTURED_GRID
POINTS 570 double
14.5	0	0
14.25	0	0
14.386963504964	-0.201738469428	0
22.399299936458	-0.310870122736	0
22.129824335287	-0.229914148082	0
22.126320781198	-0.518791771445	0
8.472303742627	-0.591754876635	0
8.780507935475	-0.76092407121	0
8.82173151259	-0.349253271447	0
18.663262297679	-0.667179415955	0
18.934786529245	-0.453308328646	0
18.636898038907	-0.29588182328	0
4.016904362632	-0.85330676142	0
4.076038737616	-0.331410355179	0
3.713721571226	-0.470767763626	0
1.89953779852	-0.269343012166	0
1.633800503821	-0.203067612233	0
1.644492760828	-0.441295523531	0
4.368408037607	-0.250833874131	0
4.337474161742	-0.544420985055	0
4.67745607622	-0.378433532554	0
1.406172533733	-0.772361039307	0
1.913288206557	-1.218576310882	0
1.90687689783	-0.651895683444	0
2.5	0	0
2.25	0	0
2.347047126858	-0.185539804102	0
1.374000926997	-0.300418771701	0
1.25	0	0
1.114902662369	-0.201591505098	0
1.067401015567	-0.470108640981	0
5.75	0	0
5.699780065382	-0.324747799653	0
5.924584257371	-0.172748359932	0
0.883560935405	-0.231136840652	0
1	0	0
9	0	0
9.117836368049	-0.253904480787	0
2.625577516194	-0.346770599322	0
17.859079774019	-0.943547525024	0
17.535029634209	-1.703182852412	0
18.338018094476	-1.366069799339	0
19.932263871771	-0.826489183604	0
19.881635677668	-0.346204516721	0
19.622287080959	-0.573770479943	0
1.5	0	0
1.75	0	0
23.25	0	0
23	0	0
23.109690227386	-0.220340974338	0
2.75	0	0
2.142562771237	-0.172460438312	0
2	0	0
23.332392704446	-0.202507275941	0
23.5	0	0
19	0	0
18.75	0	0
18.888143078348	-0.195773419804	0
2.90152418742	-0.185685383897	0
7.612175045312	-0.180627982114	0
7.527150943175	-0.401430797998	0
7.881917737402	-0.30462800112	0
25.630635194756	-0.512020961038	0
25.243766894324	-0.80097755811	0
25.758031115142	-0.952821630144	0
3	0	0
28.84859809239	-0.201276387394	0
29	0	0
28.75	0	0
4	0	0
3.835807353334	-0.199536243303	0
3.106904732949	-0.178783649348	0
29.25	0	0
29.092446172194	-0.305987136665	0
13.5	0	0
13.667851890428	-0.185102765244	0
13.75	0	0
3.75	0	0
14.407363653886	-0.441423674912	0
14.125469935998	-0.279652141152	0
4.25	0	0
5.061980176718	-0.407989246181	0
5.335512032876	-0.269401530321	0
5.113979852892	-0.173834924157	0
11.882046000841	-0.812345557852	0
12.478640631525	-1.146569360669	0
12.244190771573	-0.565936619511	0
3.633270844505	-0.195395238442	0
14	0	0
18.378272976509	-0.514977451159	0
5.5	0	0
9.619519097921	-1.16461851757	0
10.030576753886	-1.587265312651	0
9.961661342999	-1.070235523667	0
5.25	0	0
5	0	0
13.157975569138	-0.830425793913	0
13.83833027638	-1.238601004239	0
13.671302359608	-0.710707966059	0
11.325917093147	-0.8366783502	0
11.612143285947	-0.506264798476	0
6	0	0
7	0	0
6.83842404292	-0.188923754932	0
7.11236984822	-0.391746146843	0
6.631875629497	-0.169178192832	0
6.75	0	0
3.21002197083	-0.595267231049	0
3.445510026908	-0.608065324465	0
3.362318141622	-0.306501255187	0
6.120159502895	-0.164221934939	0
4.538525595924	-0.906226152762	0
13.233775457127	-1.737244787017	0
4.5	0	0
16.138065841822	-0.472802517973	0
16.126746690205	-0.221608117926	0
15.859319180798	-0.326402762318	0
26.080401003391	-0.227842452866	0
26.25	0	0
26	0	0
3.019224421113	-0.401469974918	0
8.234901607028	-0.35771789179	0
8.518285578354	-0.242327591839	0
8.328777073389	-0.153008859619	0
7.25	0	0
7.400656881666	-0.195280611572	0
7.5	0	0
5.385509485898	-0.709154879541	0
5.948697127931	-0.745234910621	0
8.75	0	0
8.5	0	0
8.25	0	0
2.214249105773	-0.404278959534	0
2.896561357202	-0.792481120253	0
9.25	0	0
4.920911116561	-0.192028847294	0
9.651670336652	-0.200847798694	0
9.849824537955	-0.19917205686	0
9.75	0	0
10.095049354068	-0.315754204277	0
10	0	0
3.25	0	0
6.738406513564	-0.710129601907	0
7.121614580011	-0.943026074581	0
11.345829942703	-0.314788260019	0
11.25	0	0
11.104427225455	-0.188863495516	0
6.052412255932	-0.372556729023	0
6.373371846535	-0.274163514827	0
10.25	0	0
10.380281579003	-0.241092027437	0
10.5	0	0
10.75	0	0
10.909079077441	-0.189427130481	0
11	0	0
6.25	0	0
6.5	0	0
4.75	0	0
3.5	0	0
10.672815698565	-0.318467932684	0
10.772487906066	-0.787092734739	0
11.020900486567	-0.439266778492	0
8	0	0
7.75	0	0
11.5	0	0
11.619450354736	-0.231443672836	0
11.75	0	0
8.139317726831	-0.163309591658	0
12.25	0	0
12.158949464947	-0.235415698299	0
12.412455385193	-0.275030800337	0
12.929165084344	-0.221336108042	0
12.686337592177	-0.258437422252	0
12.900449535554	-0.462768612232	0
12.5	0	0
9.405755833308	-0.325979504745	0
9.111697192308	-0.594170467817	0
9.457257345083	-0.753685223931	0
18.101369157139	-0.618560521812	0
18.336839281097	-0.861122419318	0
10.385948631267	-0.570640149046	0
9.5	0	0
13.411260455969	-0.342646276848	0
12.643108055516	-0.590179775368	0
13.137744715761	-0.195204172124	0
13	0	0
21.25	0	0
21.358341816502	-0.326561417551	0
21.5	0	0
13.816492716597	-0.40394453634	0
20.25	0	0
20.423452336785	-0.313445603959	0
20.5	0	0
17.789350393153	-0.390447709085	0
17.987794057246	-0.401472255242	0
17.881276545163	-0.206424156589	0
19.564465692234	-0.270867872644	0
19.290725118801	-0.49926248604	0
16.392319441256	-0.29915360323	0
19.443730892406	-0.923508713428	0
20.457987075478	-0.803203365193	0
20.167450719332	-0.505159975143	0
0.103762538371	-0.253013629949	0
0.267057015134	-0.483604909932	0
0.374713194419	-0.2320817565	0
13.25	0	0
17.415572543912	-0.230682214253	0
17.5	0	0
17.25	0	0
18.108153655084	-0.208141099276	0
18.25	0	0
18	0	0
15.75	0	0
15.544586046819	-0.246453491997	0
15.122708481244	-0.193620038745	0
15.25	0	0
15	0	0
19.75	0	0
24.149237782749	-0.319013340846	0
23.842766599446	-0.577371105011	0
24.183995039967	-0.73159476451	0
13.871646321742	-0.17394291424	0
23.862588150518	-0.245417872715	0
16.84024277193	-0.203626765466	0
16.704049384397	-0.435508179396	0
17.112673188265	-0.38804641709	0
24.75	0	0
24.832880292394	-0.290571430318	0
25	0	0
16.40158555625	-0.755912194683	0
16.850299990829	-0.757941865332	0
17.75	0	0
23.567455674596	-0.325197491724	0
16.25	0	0
16	0	0
22.645812614293	-0.197864648876	0
22.75	0	0
22.5	0	0
16.75	0	0
17	0	0
24	0	0
26.914424714815	-0.337869958787	0
26.621963281699	-0.624626679172	0
26.977877660759	-0.778408201088	0
26.622424322919	-0.264588309935	0
19.34462271879	-0.199329831305	0
19.25	0	0
19.118057075065	-0.225686869553	0
19.5	0	0
26.75	0	0
27	0	0
27.5	0	0
27.604422363523	-0.298869962794	0
27.75	0	0
17.650384190064	-0.227839036584	0
18.343198956448	-0.236734208617	0
18.5	0	0
24.25	0	0
20.143897114391	-0.233773711865	0
25.5	0	0
25.25	0	0
25.344389320279	-0.31693710653	0
21.059546193318	-0.24845941382	0
20	0	0
25.842927934822	-0.248287716678	0
25.75	0	0
25.613904645132	-0.216025146631	0
21	0	0
11.763551406169	-1.481607093928	0
30.981104050195	-0.5526690913	0
30.873880294509	-0.217692518774	0
30.706626759758	-0.34945139905	0
20.75	0	0
20.85240828135	-0.178025243856	0
23.75	0	0
20.66289882074	-0.189089155251	0
30.204950808504	-0.791758966623	0
30.715535843381	-1.149995259266	0
30.543724897762	-0.572259098027	0
30	0	0
30.180216671806	-0.343473673313	0
30.25	0	0
23.229584388362	-0.458653998547	0
29.5	0	0
29.623391954444	-0.322069028408	0
29.75	0	0
21.618913855927	-0.233585823579	0
21.75	0	0
29.348490380579	-0.521100538161	0
29.36294710412	-0.230601226356	0
22	0	0
22.25	0	0
28.25	0	0
28	0	0
28.129259193923	-0.314252106503	0
28.44374413871	-0.484576386004	0
28.100199615755	-0.812038297775	0
28.649230646972	-0.871769248311	0
28.618403654115	-0.227691192115	0
28.5	0	0
28.387848605749	-0.205892081491	0
29.054768525933	-0.708603081552	0
29.344906532636	-0.846887322836	0
26.327430876245	-0.35930637997	0
10.349120516034	-1.04150119828	0
10.894920134778	-1.514321070539	0
24.59640839418	-0.191760546865	0
12.75	0	0
24.5	0	0
13.102881121377	-0.411296235356	0
25.099388239946	-0.214879887129	0
25.97986022697	-0.52841375324	0
24.398993403151	-0.196312410538	0
17.860840746535	-0.577367743328	0
17.566481510048	-0.529340016102	0
26.5	0	0
16.637148248735	-0.188015807345	0
18.183918302467	-0.396443618316	0
27.159348252167	-0.205297590358	0
27.357530053515	-0.198815038154	0
27.25	0	0
15.060354649709	-1.112587998155	0
15.51532665618	-1.043792149387	0
15.178150912169	-0.713100616689	0
10.051363365948	-0.719159376333	0
14.661248691948	-0.27865166374	0
14.75	0	0
27.868836823455	-0.217301839861	0
31	0	0
30.75	0	0
-0.020273477909	-1.415389842481	0
1.054972770973	-1.487485199502	0
0.512583677021	-1.0438154777	0
0.75	0	0
2.361419414365	-0.794513604096	0
29.890297721653	-0.2433406165	0
30.473599299501	-0.238575611274	0
30.5	0	0
30.660802173874	-0.161931182737	0
28.783812899585	-0.467926883932	0
4.937022539393	-0.72440615077	0
6.696914540879	-0.380672503721	0
7.434272221796	-0.695675918868	0
15.339606453815	-0.166204802571	0
15.281953315711	-0.388999642276	0
11.893544445085	-0.335972898148	0
12	0	0
9.753796445798	-0.478866225926	0
7.720012958977	-0.638314519759	0
21.871398197179	-0.313006985103	0
21.615176662754	-0.521922347305	0
21.856785525528	-0.665128848631	0
20.792152536902	-0.448319093295	0
21.109577821412	-0.527879642114	0
21.360297691811	-0.734200004244	0
15.547854961707	-0.580173571081	0
24.496861814148	-0.467031445896	0
25.067351422649	-0.463427753535	0
24.81263825963	-0.684738154192	0
22.865620821195	-0.218348593093	0
23.443705587002	-0.773171720633	0
27.277617447467	-0.489224417775	0
27.863714790534	-0.471681393437	0
26.239117668995	-0.863279739365	0
29.896797054636	-0.547765129844	0
29.612773839625	-0.699757135752	0
29.867172666547	-0.87444432816	0
29.610354212963	-1.521444655905	0
29.59548165142	-1.071765512911	0
29.115129171034	-1.220660174798	0
31.345359428525	-0.458952144926	0
31.144859415042	-0.241304201582	0
15.919565295974	-0.746550096707	0
16.063006820294	-1.289595303187	0
16.5	0	0
14.900855313538	-0.178071167744	0
14.161016743654	-0.72559708689	0
19.011498044983	-0.834202892304	0
16.760433281999	-1.263698818643	0
17.280361389946	-0.931704507314	0
-0.627742252535	-0.296285438777	0
-1	0	0
-1	-0.5	0
0.625738545692	-0.228405936136	0
0.5	0	0
3.313957665883	-0.865581185485	0
3.619156095452	-0.800599314657	0
[...]
CELL_DATA 986
SCALARS 100.00_0.14 double 1
LOOKUP_TABLE default
11.019970022187 9.5605878886184 8.8323186815372 8.6193097668435 7.7121850780933 9.721676383194 8.8642297734513 6.6577897570848 10.82374128017 9.9174946667931 9.2102592638644 10.577326325478 9.5791506404235 10.500304414758 10.636946029623 10.166559376226 5.4491221980558 8.5753604741884 10.718899679272 11.494990792438 10.545206612059 10.639784307296 11.349516877797 10.231330533404 10.23462497811 10.247341598183 10.330173785715 6.9108709058445 10.38620842912 9.8557645956074 9.2342949985646 9.8074174618268 10.491822719955 10.822427432851 8.896154685998 10.61851071822 9.9657501485623 9.619781147735 7.261806720384 8.9100028447451 11.804516409196 8.4718320248302 10.331004781784 5.843746845533 9.9466190651471 9.7763424952368 7.4327960382232 8.2081522446797 10.632525149711 10.12107813245 9.7628467715966 8.998267565849 7.6086240118399 10.242136725129 7.7320369126506 10.83651616742 5.7858662087929 10.429762161078 10.226772452161 9.1533393189725 10.390428834612 9.3728569672529 10.397188398068 11.146245838971 10.856468217665 10.676415263897 8.2758520147224 8.0740243963015 10.809951447491 8.9055718218297 11.074176657182 10.311754989289 10.151860263778 10.896658067731 10.214473607486 8.1665519062769 10.075067069466 10.054421421458 10.853113345765 10.788536414154 9.1926342116921 7.6180450830618 10.776398327559 9.5451606547882 11.91752168942 12.144670373551 9.8521936034129 11.421445761958 10.685031496829 10.736752052944 9.7606116405303 10.814864147436 8.8640784902118 9.9505162985087 9.600268307813 11.165818991282 11.417515496099 11.162524986717 10.244939656874 10.743417668064 10.055571580813 11.74522762012 10.030804590967 10.202790981201 8.5361160244705 7.8178033676285 10.225448383052 9.3999311060814 9.0956799918173 9.6801106447496 9.336427705072 10.803581990578 9.6344004395113 9.8084559630249 9.837797131538 12.324253517638 9.6799302105273 11.188216634378 9.2880207392282 10.326131027005 7.983949646518 11.350469274316 9.0278167718526 8.7807658176896 9.3741429852801 10.77060727928 8.9028277141711 8.6394130027613 11.301420151004 10.126565621787 9.7074756072141 11.122547072186 10.739200964744 10.555114896943 8.0853315111427 10.236799378414 9.1245739332745 10.598668647862 10.143929297107 8.5440118361985 10.367377806415 9.0833547303494 11.287492304475 9.7379365127959 12.485491306624 11.408751522017 9.9348790658737 7.4439720509105 9.5405022199574 8.2914897249318 10.764260524849 11.103738194371 9.2781719313175 10.737025019594 10.025960261611 10.476920513057 10.304326538973 9.722705084212 9.0553881995916 8.917036300694 11.728579150711 10.28727541877 9.928280131738 12.056960724871 10.187701649492 10.25102739813 6.5465892967944 8.3397026004597 11.784672061299 9.9776837149859 11.590534449468 10.831498365698 7.3143662809141 8.6153326523954 10.173304535524 9.7518341655434 11.559711333311 10.742022485199 9.0230690317441 9.7242662553639 10.950001278123 10.264241075145 10.564321173122 7.2577515867664 7.4347097449209 11.251085549984 10.2174701002 10.716739633669 9.1307909073713 7.4487438205679 8.3582049998423 6.5589278085022 9.9476037365465 7.2753797280091 10.060102825761 10.45415481461 7.1802763815609 11.217891664041 10.328714422981 9.7684164872373 10.280821461029 9.2574522999431 10.350420029257 9.8268405850673 10.506910785642 8.1655672908464 10.046479682334 9.8456251294611 10.421728664787 10.054779699787 9.7595057357582 10.641073836006 8.8824117090127 9.3453674875219 9.3184988766845 9.3318549112356 7.0526664088228 9.6134471925441 6.8415917213218 9.3663765946317 9.9825069539795 10.468758938219 10.386150370085 12.239991646199 9.6599833508313 10.616042271741 10.012009352514 9.7127895939463 8.8476143919008 10.656099678378 8.4394592980931 6.0153424465379 10.146882784646 10.024447782721 9.1084333922194 10.089770630464 9.5367676877788 7.4404671417827 10.236513928207 8.9086646353131 8.7792635325045 8.5790197605083 10.71908793358 9.7999286670507 9.0798719695247 9.9096315712591 9.0774075993712 8.7627945280266 8.9034007000572 8.8718618504312 8.5869087930001 9.4996396075931 7.6511735286919 9.4931373655478 10.075504335808 8.7160308347075 10.803188318949 9.8007679520914 10.725382895854 7.9794716190503 9.4471355110238 9.0032742178498 10.26696135183 9.7826269694138 9.1523504818425 10.711756814027 8.9341957907195 10.988500738085 8.8862993335438 9.0824529490598 9.3470764495359 9.9637271110993 9.9393210111438 9.8042242321212 10.205619250726 10.322258286783 10.215468106865 10.047253848217 10.34480677512 10.718673907575 8.63976366366 10.873946019466 11.329080100013 11.140768425028 7.7266664754635 11.51124565654 10.173298676103 11.279657031559 11.339134569239 10.275348198632 9.3637853206455 8.7194829082508 8.6349022558106 11.136643767078 9.8440013987592 11.028355801503 9.8038947815716 10.962970608088 11.438628681242 10.709866841831 8.5993061432428 11.234943241687 11.2885736976 10.180473260829 8.9462522402691 8.5172684380367 10.178758683822 11.076750463488 9.4498567193265 10.00953469716 9.5238881771571 10.213862441213 9.1040233981159 9.5417558827374 9.6996208636658 8.5961038776263 9.9115077978297 8.3410664190071 9.0279089318176 9.8726349583746 9.0005870656837 9.7875076931767 9.4082839373507 9.1362875770552 8.9512030679761 9.0467653643128 10.693843480465 7.5765663982797 7.4938813438158 5.7383626672257 7.5660872466869 8.208148557373 8.7021473458855 9.7666549909616 9.0088466840712 9.3515236743007 8.0758054661428 10.397546129376 8.3774378738855 10.550751896971 6.7028942868083 7.8572882058114 11.688715288389 11.162273558427 10.68539247383 9.9934931758741 10.354065391071 10.553745728224 10.046611448581 9.1334098702988 10.042506794104 7.3774064337825 9.4455192524875 7.0491157301756 9.7117339795429 6.9272346610824 6.6140168114109 8.4174850634615 8.153198853991 9.5439830874989 9.0034523851386 6.650856929276 7.8736474990007 9.0537597648181 9.9400634085874 7.8272084719417 6.9752047095192 6.7380599258523 7.8576818390025 10.522942662147 10.904985637157 9.2973029577277 8.4113878963959 7.554461814794 8.807177273773 9.8762677228441 8.4094808705099 10.620851929845 9.9034919257143 7.7531302016886 6.3924686525056 9.0479963888529 9.6865907203264 10.416866494531 10.991809397889 10.326797047772 9.4363610416648 10.656839472786 7.7085835903112 11.601195068793 9.1517032552892 8.8449111536059 7.6661429225194 9.9620403897183 8.8181544201893 10.47881762603 8.7314457509707 9.0914642108468 10.224806377221 9.4890040122881 10.632685208585 10.687619330522 9.5971191056329 9.4234578261436 7.2611384208767 11.487075695107 7.6509130688771 9.6521490314049 10.332373948773 9.4156122614491 11.283760338543 9.4477909802614 9.495118884222 8.4716477349542 9.4917874289177 9.0876385610012 8.1671196853823 7.9988124472101 6.8535810677462 8.6704014224332 6.6719787730682 9.7616785228938 9.3084365354239 8.0651978329409 8.1847733853746 9.423841977198 7.723509879373 7.3051765234989 8.2900753927379 7.350333812092 7.9093658190775 10.464003273643 9.5000852936468 9.126195549566 8.0548537697108 8.2422522186564 6.4770787044875 8.6017861538748 5.686002015825 8.9358733037855 6.224404864768 8.1398432549531 10.130517182484 9.3980778162239 6.8691477116047 9.8973923773059 5.4972629034959 10.599501948275 8.0178261722818 8.6878011830329 11.211017541198 10.752890689619 10.66683686544 8.8431810606869 6.2643591040369 5.0261738023303 8.4729907129547 10.014951325306 8.3584626390551 9.2127324886352 7.9355610028698 9.2414855836297 8.6091938619022 8.6193411001988 8.481683666493 5.9564378128177 6.6869680837456 8.5428433592712 6.8418196902658 5.882146319588 7.0540957775646 9.4244483314982 7.4237898237466 5.9994028456297 5.2547621026892 10.121965364967 8.7210248218641 9.0361189079411 8.3541634905677 6.5326778728582 8.1672078972159 6.6259719165798 6.89367258575 10.230605718178 8.9106397070621 8.4856824822517 8.9265650268465 10.315348899328 7.8819911338553 9.3780812337851 5.7672561255278 8.8484352510445 11.431811553443 10.89074650821 8.584422008454 7.021669825673 5.518879565536 4.5085470744831 7.835925988861 9.8633005464525 7.8140733510682 7.6204089331435 6.5265779023158 7.6503492195907 8.3481205003684 10.267743864696 6.2012399216992 9.4311897147387 10.22960746934 4.8463235809884 9.0202012077406 11.524728706942 9.9606474953571 6.3707748771263 8.2879699700524 9.0371737980665 7.3590517018368 6.7844060265435 5.8961111563633 9.8865969283765 9.5006959191814 6.0022662334907 8.2786049525861 8.8532954228347 6.9888792025122 6.2128611441198 5.6138511202833 9.5324798439438 8.6916227856432 6.9272961830311 8.1620352826646 7.669909747002 8.2063340861468 8.8797541340003 8.0457057868373 7.4597415057838 9.6384519210571 9.045608437195 5.6758697676627 4.0147941057995 9.9553078167342 6.6357329624533 10.566115986894 9.1272592586696 6.2372772818199 9.4625335159113 4.4997048037721 7.4731051413846 3.9824908584828 4.9634874131891 9.1434431067998 6.2739002213939 9.2986808604052 6.095413157345 9.2378922827652 8.8041003574163 7.1448990763358 8.9855565780307 5.7113148605303 6.6430355008569 7.7400794666702 6.9942905168419 8.2941232948964 6.3930774040359 7.8582363116187 9.4742722766229 5.9298441661275 5.4028703504132 8.5634493105466 7.8296339269317 10.964813925306 7.7538557003641 10.297620260126 7.674193986976 9.5408663801924 9.8510478419283 6.7536577760703 4.625665923555 8.3815498629429 7.4742637370952 7.6346018624206 7.6805653599774 11.035391203612 9.504765085729 5.7972011725992 9.2076089255859 9.5901480574518 8.3389619691829 8.5120035621022 7.7444289845577 8.2472545998019 7.4650669872626 4.6226784848909 8.4251530798959 4.8961726225773 8.1780145547676 8.4049995329713 8.9381161068195 6.6503881554085 8.0479445684387 8.5564101690752 8.3200820165949 8.0303531813612 6.7857917554128 5.5336209975086 4.5254773706902 5.7160571314536 7.8853926744537 9.5332799420354 7.8373885319302 6.8902541075826 7.5489180113822 6.1618149796551 11.37399358826 6.1190200666476 10.610727669538 9.394255450536 4.1812834536397 8.9535233319799 9.0251096580508 8.9282319212318 8.3916247941424 7.4448697619399 6.4763283977041 6.3753363814025 6.2040247173356 7.5403958569634 8.6085102857154 4.403621748276 5.5236323339748 4.9037539004382 6.0562916050757 5.3805702537515 9.1901074136267 6.8258624323543 8.4648119023473 5.359029186323 5.5095502220072 6.1839134292201 8.6114215165712 4.8775710481331 4.7819398931308 7.3313234690127 6.1127413117896 4.146698021349 6.2806463680899 10.102703982486 9.4900004362057 7.4497477874583 5.0527490436012 5.7032198925637 4.9140246776045 6.7966122247295 7.470412974022 7.1394311260263 7.4151362859828 7.1343369731461 7.4879199396496 6.5640889428411 7.1607712587671 6.7949105950631 7.2261849570827 6.0310622449987 7.0400038323582 7.249635905247 6.4452372140691 6.8576472821707 6.7725270599731 6.7873782984353 7.0116400697174 7.0230261869031 6.5695376154257 6.8357804821234 4.5843957266478 6.0871746268777 8.9801572169655 4.9047056764373 10.108486215295 7.2727274267734 6.9173051408976 6.8164956974382 7.7132525420334 6.1071241555053 5.2936743108931 5.2945497705294 5.375145845144 5.8526120156549 9.9038858366569 11.703914369526 10.468684273302 9.7474726395444 5.5294075153211 3.827414487625 6.0663262732396 6.5389090635757 6.9129373433837 6.0459129896828 6.3717199308782 5.4870481681903 6.5482771829696 7.448344520984 6.8868987052256 6.9150188161422 6.7411354117985 6.8398378266703 6.3923147056762 5.6444740816049 6.7426422246094 6.7011553363911 5.1396946576622 3.7192945078934 3.3860070596618 4.954533365595 4.4843716747526 7.1664938004407 6.7924546220776 8.2348786879357 6.8484116697832 11.530918106925 11.06443944455 4.5263528083745 4.9912133913658 8.8946557681897 5.9622551271482 4.2976059189474 4.4261286855562 5.7472987236344 7.5006943646841 10.800533823029 7.5066927534468 7.7826725100576 6.1329825394338 5.9996027506063 10.871897852677 5.3938132558882 7.8806837298548 11.732947002905 6.0776802207244 4.715464085676 8.6992527361565 8.7569933841454 5.8183735157642 5.1999545213607 4.9790227396071 7.1033989188522 3.8180168558108 5.7194267833598 3.8931274272338 3.8759775813754 4.4765258507321 9.7887261672872 5.5381074997738 6.0129245806838 5.2554880851551 5.5633207112456 4.9688707725006 6.5447616584214 10.181361207216 4.0448335197037 6.8059667550838 3.5700270249822 4.4220163882642 5.6171968718537 4.8651599315879 4.1402595039282 4.513985459423 4.8320465942344 4.7683150702184 5.6918585083528 4.2351486856249 9.3357953839303 5.6686377688323 4.0929311293003 4.4994904649385 5.3583054400513 5.2209318758821 7.8130516332942 7.5767505598864 8.6783992586462 8.3089845932719 7.2192330978086 7.8638071162951 6.4951557525199 7.0141442010095 8.2315876493906 7.7622015260188 5.8120040945257 6.7151027064307 6.528767796425 8.2791307714687 7.2381205346892 3.6700910358253 5.4891595445515 6.0784636288273 4.8694297210203 4.8645367757266 4.3065241132832 4.4270958959874 4.2139426367302 5.1642064741587 4.1771173727988 4.9653260720002 5.7867220311028 10.851951619046 4.8561378438054 5.9048469266605 5.6631411483848 10.416562172583 8.1732879555854 4.0929901844262 3.9709069440672 3.7337095818847 4.8441266382012 5.4056656095733 11.780659806313 4.0087839031611 4.5821126663131 4.9431414963068 3.4545277662944 4.6523194362748 5.8416122605423 5.1232731631384 5.0979212275655 4.5050060758479 5.2986477409446 4.9893646084239 4.2481358800735 5.5196912074571 3.6770973854121 4.2067495603142 4.9964384315469 4.279466416794 3.5698131520806 4.0056990076654 3.7151614368291 3.9089338602609 3.8694332897222 3.8524273244385 3.8226069499677 4.9541227592782 4.6180074474657 5.7926808348382 6.1025331600969 4.0849144147992 3.6408290440748 3.5188857361882 4.4712312871505 3.6449704126996 3.7331480416916 3.7312787382136 3.7437557303599 3.7825269154285 4.4007774329382 3.9820381512714 4.7498082454405 3.5579431157836 3.4041196948064 4.4833543578751 4.3951567024643 3.4448114597176 3.430622013154 3.7282879335152 3.7419225145073 3.6632586541375 3.7878823969489 3.5812415919249 3.7917473803747 3.9533140733223 3.6388231683082 4.2163642727296 3.7392199231112 3.7430970096991 3.5008979999776 4.4049064828428 3.4610312419512 3.5498838982237 3.5746442535816 3.4288873936153 3.3959478537142 3.5765571144896 3.5566562643791 3.8656516999135 3.7059152911877 4.5149670698483 3.5436507082482 4.1580829232778 3.3961912960553 3.492539819997 3.9230391020576 4.0173417724668 3.4687974373802 3.4601245088624 3.4341682436747 4.9843121327568 4.0461672738114 3.8880537949296 3.9953624633956 3.5315002963122 3.4424543150307 3.3931374570347 3.4759845048744 4.2625939135509 3.5007537317765 3.4995457755362 3.6314448836004 4.5162451588723 3.9839217290557 4.0572950290285 3.3766481162816 3.4195393660409 4.3829143952754 4.0890870464331 3.6665552042308 3.6144886304442 3.7802585818214 3.3822348529194 3.6101960466493 3.7057484607053 4.3491252169464 3.5453016968575 3.5847321158729 4.0824563278388 3.5815599310023 4.094628231254 3.6527664291524 3.6438565486616 4.3753777823921 4.5290853772867 4.2611894634039 3.5574834186669 3.7854386911034 3.4613962953205 3.3890174324797 3.4353478221789 3.5014121316457 3.5880302944317 4.1848574969549 3.898025010539 3.8258227450291 3.902600430479 4.0614077027411 3.7767077401414 4.3858463741329 4.3546193108979 4.3524839212991 3.5729399485037 3.5907184276158 3.4985867234199 3.6623664981247 3.9820745193924 3.4267738592997 3.500801890322 3.7636051603704 3.5575474236767 3.6798192213652 3.6138491593161 3.8367959502141 3.8904991382632 3.9256547745945 3.7884789755011 4.0286168362182 4.1154736577233 4.01307968051 4.0021085849548 3.9323876588879 4.0774919492436 4.1168579293741 4.0729476939968 4.0228531962268 3.711099259689 3.5765115986062 4.1847775350578 3.7570069766566 3.655771448928 3.7844329183097 3.874074127899 4.02315057858 3.7681271536527 3.8878058456203 4.0835568855773 4.0256268881662 4.0827281059063 4.0699816173063 3.8778184827267 4.1021682244456 4.0480521584201 
SCALARS 200.00_0.33 double 1
LOOKUP_TABLE default