# vtk DataFile Version 3.0
d-2__ created by libgimli-v1.1.0
ASCII
DATASET UNSTRUCTURED_GRID
POINTS 570 double
14.5	0	0
14.25	0	0
14.386963504964	-0.201738469428	0
22.399299936458	-0.310870122736	0
22.129824335287	-0.229914148082	0
22.126320781198	-0.518791771445	0
8.472303742627	-0.591754876635	0
8.780507935475	-0.76092407121	0
8.82173151259	-0.349253271447	0
18.663262297679	-0.667179415955	0
18.934786529245	-0.453308328646	0
18.636898038907	-0.29588182328	0
4.016904362632	-0.85330676142	0
4.076038737616	-0.331410355179	0
3.713721571226	-0.470767763626	0
1.89953779852	-0.269343012166	0
1.633800503821	-0.203067612233	0
1.644492760828	-0.441295523531	0
4.368408037607	-0.250833874131	0
4.337474161742	-0.544420985055	0
4.67745607622	-0.378433532554	0
1.406172533733	-0.772361039307	0
1.913288206557	-1.218576310882	0
1.90687689783	-0.651895683444	0
2.5	0	0
2.25	0	0
2.347047126858	-0.185539804102	0
1.374000926997	-0.300418771701	0
1.25	0	0
1.114902662369	-0.201591505098	0
1.067401015567	-0.470108640981	0
5.75	0	0
5.699780065382	-0.324747799653	0
5.924584257371	-0.172748359932	0
0.883560935405	-0.231136840652	0
1	0	0
9	0	0
9.117836368049	-0.253904480787	0
2.625577516194	-0.346770599322	0
17.859079774019	-0.943547525024	0
17.535029634209	-1.703182852412	0
18.338018094476	-1.366069799339	0
19.932263871771	-0.826489183604	0
19.881635677668	-0.346204516721	0
19.622287080959	-0.573770479943	0
1.5	0	0
1.75	0	0
23.25	0	0
23	0	0
23.109690227386	-0.220340974338	0
2.75	0	0
2.142562771237	-0.172460438312	0
2	0	0
23.332392704446	-0.202507275941	0
23.5	0	0
19	0	0
18.75	0	0
18.888143078348	-0.195773419804	0
2.90152418742	-0.185685383897	0
7.612175045312	-0.180627982114	0
7.527150943175	-0.401430797998	0
7.881917737402	-0.30462800112	0
25.630635194756	-0.512020961038	0
25.243766894324	-0.80097755811	0
25.758031115142	-0.952821630144	0
3	0	0
28.84859809239	-0.201276387394	0
29	0	0
28.75	0	0
4	0	0
3.835807353334	-0.199536243303	0
3.106904732949	-0.178783649348	0
29.25	0	0
29.092446172194	-0.305987136665	0
13.5	0	0
13.667851890428	-0.185102765244	0
13.75	0	0
3.75	0	0
14.407363653886	-0.441423674912	0
14.125469935998	-0.279652141152	0
4.25	0	0
5.061980176718	-0.407989246181	0
5.335512032876	-0.269401530321	0
5.113979852892	-0.173834924157	0
11.882046000841	-0.812345557852	0
12.478640631525	-1.146569360669	0
12.244190771573	-0.565936619511	0
3.633270844505	-0.195395238442	0
14	0	0
18.378272976509	-0.514977451159	0
5.5	0	0
9.619519097921	-1.16461851757	0
10.030576753886	-1.587265312651	0
9.961661342999	-1.070235523667	0
5.25	0	0
5	0	0
13.157975569138	-0.830425793913	0
13.83833027638	-1.238601004239	0
13.671302359608	-0.710707966059	0
11.325917093147	-0.8366783502	0
11.612143285947	-0.506264798476	0
6	0	0
7	0	0
6.83842404292	-0.188923754932	0
7.11236984822	-0.391746146843	0
6.631875629497	-0.169178192832	0
6.75	0	0
3.21002197083	-0.595267231049	0
3.445510026908	-0.608065324465	0
3.362318141622	-0.306501255187	0
6.120159502895	-0.164221934939	0
4.538525595924	-0.906226152762	0
13.233775457127	-1.737244787017	0
4.5	0	0
16.138065841822	-0.472802517973	0
16.126746690205	-0.221608117926	0
15.859319180798	-0.326402762318	0
26.080401003391	-0.227842452866	0
26.25	0	0
26	0	0
3.019224421113	-0.401469974918	0
8.234901607028	-0.35771789179	0
8.518285578354	-0.242327591839	0
8.328777073389	-0.153008859619	0
7.25	0	0
7.400656881666	-0.195280611572	0
7.5	0	0
5.385509485898	-0.709154879541	0
5.948697127931	-0.745234910621	0
8.75	0	0
8.5	0	0
8.25	0	0
2.214249105773	-0.404278959534	0
2.896561357202	-0.792481120253	0
9.25	0	0
4.920911116561	-0.192028847294	0
9.651670336652	-0.200847798694	0
9.849824537955	-0.19917205686	0
9.75	0	0
10.095049354068	-0.315754204277	0
10	0	0
3.25	0	0
6.738406513564	-0.710129601907	0
7.121614580011	-0.943026074581	0
11.345829942703	-0.314788260019	0
11.25	0	0
11.104427225455	-0.188863495516	0
6.052412255932	-0.372556729023	0
6.373371846535	-0.274163514827	0
10.25	0	0
10.380281579003	-0.241092027437	0
10.5	0	0
10.75	0	0
10.909079077441	-0.189427130481	0
11	0	0
6.25	0	0
6.5	0	0
4.75	0	0
3.5	0	0
10.672815698565	-0.318467932684	0
10.772487906066	-0.787092734739	0
11.020900486567	-0.439266778492	0
8	0	0
7.75	0	0
11.5	0	0
11.619450354737	-0.231443672836	0
11.75	0	0
8.139317726831	-0.163309591658	0
12.25	0	0
12.158949464947	-0.235415698299	0
12.412455385193	-0.275030800337	0
12.929165084344	-0.221336108042	0
12.686337592177	-0.258437422252	0
12.900449535554	-0.462768612232	0
12.5	0	0
9.405755833308	-0.325979504745	0
9.111697192308	-0.594170467817	0
9.457257345083	-0.753685223931	0
18.101369157139	-0.618560521812	0
18.336839281097	-0.861122419318	0
10.385948631267	-0.570640149046	0
9.5	0	0
13.411260455969	-0.342646276848	0
12.643108055516	-0.590179775368	0
13.137744715761	-0.195204172124	0
13	0	0
21.25	0	0
21.358341816502	-0.326561417551	0
21.5	0	0
13.816492716597	-0.40394453634	0
20.25	0	0
20.423452336785	-0.313445603959	0
20.5	0	0
17.789350393153	-0.390447709085	0
17.987794057246	-0.401472255242	0
17.881276545163	-0.206424156589	0
19.564465692234	-0.270867872644	0
19.290725118801	-0.49926248604	0
16.392319441256	-0.29915360323	0
19.443730892406	-0.923508713428	0
20.457987075478	-0.803203365193	0
20.167450719332	-0.505159975143	0
0.103762538371	-0.253013629949	0
0.267057015134	-0.483604909932	0
0.374713194419	-0.2320817565	0
13.25	0	0
17.415572543912	-0.230682214253	0
17.5	0	0
17.25	0	0
18.108153655084	-0.208141099276	0
18.25	0	0
18	0	0
15.75	0	0
15.544586046819	-0.246453491997	0
15.122708481244	-0.193620038745	0
15.25	0	0
15	0	0
19.75	0	0
24.149237782749	-0.319013340846	0
23.842766599446	-0.577371105011	0
24.183995039967	-0.73159476451	0
13.871646321742	-0.17394291424	0
23.862588150518	-0.245417872715	0
16.84024277193	-0.203626765466	0
16.704049384397	-0.435508179396	0
17.112673188265	-0.38804641709	0
24.75	0	0
24.832880292394	-0.290571430318	0
25	0	0
16.40158555625	-0.755912194683	0
16.850299990829	-0.757941865332	0
17.75	0	0
23.567455674596	-0.325197491724	0
16.25	0	0
16	0	0
22.645812614293	-0.197864648876	0
22.75	0	0
22.5	0	0
16.75	0	0
17	0	0
24	0	0
26.914424714815	-0.337869958787	0
26.621963281699	-0.624626679172	0
26.977877660759	-0.778408201088	0
26.622424322919	-0.264588309935	0
19.34462271879	-0.199329831305	0
19.25	0	0
19.118057075065	-0.225686869553	0
19.5	0	0
26.75	0	0
27	0	0
27.5	0	0
27.604422363523	-0.298869962794	0
27.75	0	0
17.650384190064	-0.227839036584	0
18.343198956448	-0.236734208617	0
18.5	0	0
24.25	0	0
20.143897114391	-0.233773711865	0
25.5	0	0
25.25	0	0
25.344389320279	-0.31693710653	0
21.059546193318	-0.24845941382	0
20	0	0
25.842927934822	-0.248287716678	0
25.75	0	0
25.613904645132	-0.216025146631	0
21	0	0
11.763551406169	-1.481607093928	0
30.981104050195	-0.5526690913	0
30.873880294509	-0.217692518774	0
30.706626759758	-0.34945139905	0
20.75	0	0
20.85240828135	-0.178025243856	0
23.75	0	0
20.66289882074	-0.189089155251	0
30.204950808504	-0.791758966623	0
30.715535843381	-1.149995259266	0
30.543724897762	-0.572259098027	0
30	0	0
30.180216671806	-0.343473673313	0
30.25	0	0
23.229584388362	-0.458653998547	0
29.5	0	0
29.623391954444	-0.322069028408	0
29.75	0	0
21.618913855927	-0.233585823579	0
21.75	0	0
29.348490380579	-0.521100538161	0
29.36294710412	-0.230601226356	0
22	0	0
22.25	0	0
28.25	0	0
28	0	0
28.129259193923	-0.314252106503	0
28.44374413871	-0.484576386004	0
28.100199615755	-0.812038297775	0
28.649230646972	-0.871769248311	0
28.618403654115	-0.227691192115	0
28.5	0	0
28.387848605749	-0.205892081491	0
29.054768525933	-0.708603081552	0
29.344906532636	-0.846887322836	0
26.327430876245	-0.35930637997	0
10.349120516034	-1.04150119828	0
10.894920134778	-1.514321070539	0
24.59640839418	-0.191760546865	0
12.75	0	0
24.5	0	0
13.102881121377	-0.411296235356	0
25.099388239946	-0.214879887129	0
25.97986022697	-0.52841375324	0
24.398993403151	-0.196312410538	0
17.860840746535	-0.577367743328	0
17.566481510048	-0.529340016102	0
26.5	0	0
16.637148248735	-0.188015807345	0
18.183918302467	-0.396443618316	0
27.159348252167	-0.205297590358	0
27.357530053515	-0.198815038154	0
27.25	0	0
15.060354649709	-1.112587998155	0
15.51532665618	-1.043792149387	0
15.178150912169	-0.713100616689	0
10.051363365948	-0.719159376333	0
14.661248691948	-0.27865166374	0
14.75	0	0
27.868836823455	-0.217301839861	0
31	0	0
30.75	0	0
-0.020273477909	-1.415389842481	0
1.054972770973	-1.487485199502	0
0.512583677021	-1.0438154777	0
0.75	0	0
2.361419414365	-0.794513604096	0
29.890297721653	-0.2433406165	0
30.473599299501	-0.238575611274	0
30.5	0	0
30.660802173874	-0.161931182737	0
28.783812899585	-0.467926883932	0
4.937022539393	-0.72440615077	0
6.696914540879	-0.380672503721	0
7.434272221796	-0.695675918868	0
15.339606453815	-0.166204802571	0
15.281953315711	-0.388999642276	0
11.893544445085	-0.335972898148	0
12	0	0
9.753796445798	-0.478866225926	0
7.720012958977	-0.638314519759	0
21.871398197179	-0.313006985103	0
21.615176662754	-0.521922347305	0
21.856785525528	-0.665128848631	0
20.792152536902	-0.448319093295	0
21.109577821412	-0.527879642114	0
21.360297691811	-0.734200004244	0
15.547854961707	-0.580173571081	0
24.496861814148	-0.467031445896	0
25.067351422649	-0.463427753535	0
24.81263825963	-0.684738154192	0
22.865620821195	-0.218348593093	0
23.443705587002	-0.773171720633	0
27.277617447467	-0.489224417775	0
27.863714790534	-0.471681393437	0
26.239117668995	-0.863279739365	0
29.896797054636	-0.547765129844	0
29.612773839625	-0.699757135752	0
29.867172666547	-0.87444432816	0
29.610354212963	-1.521444655905	0
29.59548165142	-1.071765512911	0
29.115129171034	-1.220660174798	0
31.345359428525	-0.458952144926	0
31.144859415042	-0.241304201582	0
15.919565295974	-0.746550096707	0
16.063006820294	-1.289595303187	0
16.5	0	0
14.900855313538	-0.178071167744	0
14.161016743654	-0.72559708689	0
19.011498044983	-0.834202892304	0
16.760433281999	-1.263698818643	0
17.280361389946	-0.931704507314	0
-0.627742252535	-0.296285438777	0
-1	0	0
-1	-0.5	0
0.625738545692	-0.228405936136	0
0.5	0	0
3.313957665883	-0.865581185485	0
3.619156095452	-0.800599314657	0
[...]
CELL_DATA 986
SCALARS 100.00_0.41 double 1
LOOKUP_TABLE default
8.4995878595649 9.1261778221491 8.2001586243053 6.5837494393664 5.7976143400571 9.0019380232103 8.724852307356 6.1086233952504 9.7777889615364 8.2309495687705 7.8549933990919 8.340715799903 8.2465918503624 10.4496882567 9.7523442975742 7.8327871873572 4.4220843644897 7.6760843108087 9.5705166532895 10.09974243664 9.2886542777496 9.8011957079615 10.474275293302 9.4231195652859 10.250907020836 8.7214682659293 9.2174904586691 6.4691270007126 8.388629005974 10.236586169617 7.0765469304905 9.2790091388221 10.103247447305 12.051719569888 5.3542372070614 9.5699125829391 11.643493718847 8.9090404885494 5.602987758449 5.3885023231049 8.3403404875501 6.0003408054199 9.5122881877094 4.6688531946881 9.7081144903884 8.7704992814469 6.1232872935337 6.8536642105439 8.1175907541651 8.9286551843458 7.7328600247859 5.7102240886369 5.8447089183254 8.6581268815041 6.9250621172616 8.4146934016906 4.5743503001133 13.535812490933 7.846588406426 5.6068749737788 9.0824203837137 8.3067167454048 11.780330611834 9.8233990583266 13.790717718102 12.817659241976 7.4205077164994 6.7822316965955 10.727362639335 8.2416969700612 11.189316038812 13.347868399381 11.509058162219 10.84944693551 9.4914091164036 7.176476876902 10.21863986109 9.4368537905887 10.718755330226 9.9883532917619 10.221099170454 5.7434615677467 9.858706849368 7.9460133152573 9.2064422834585 14.617884356302 7.5514803613654 8.8621731831206 13.561149851177 11.682416499664 8.8237764020096 10.059934150256 8.4600236982257 8.8072915738906 8.9244826870892 9.7013558659512 9.7805302796299 10.27404998567 12.947745254602 10.04324567091 10.612375041916 8.5072960878672 7.9732200543362 11.216922934368 6.7496617303095 5.7018037924473 9.395780660563 7.4918987982138 7.7374039756616 8.4939830351427 7.2385488954651 9.3556067238436 8.8568035608857 6.7072793923915 8.8027640517398 13.236024937696 8.3573703523748 8.7207955921276 8.3671659910712 8.1060503064793 6.8425399218466 11.17307302346 8.4458447870789 6.8654015082222 8.0095872415539 9.6347309250808 7.6703114676132 6.5614354654738 9.3592769670065 9.7507995920212 7.6008663155809 8.6385057078771 14.046346017308 9.0115367215231 6.3183775058926 12.529368135671 7.3940944989467 11.725666016888 11.070769592693 7.3955840106453 8.385876633115 7.9068934171995 8.4346290256768 12.224118273381 20.206699654688 14.235212931735 7.970207788992 5.9835234061427 8.0889201972511 6.93642941298 10.166972024042 10.946661398328 6.8294401090494 9.6793004145865 9.8425318854116 10.816258939894 10.971790105532 6.7508977119214 6.5471917443634 7.2860373424288 12.885866820898 8.691258691163 6.6164846052918 13.815538291772 11.286761487851 6.7589094635407 5.3691202983284 7.9381399019034 10.5903611169 10.193845317115 11.990257140501 9.080925523805 5.8002863708842 6.7018927763319 9.3281063380779 10.136376545135 9.1419283931007 8.0178392087185 8.9299045716483 10.013380242062 10.776347095519 9.5999466672561 10.275663837432 6.287358316385 6.3799570023855 10.074751041303 9.9237848692125 10.210532303873 8.9933090121099 6.6961595421081 7.3715792992919 5.4911521611554 9.3482880782812 5.5509234802088 9.441370891595 9.3915098376197 5.426675793195 9.9110679504779 8.984609480706 8.2419231784452 10.032279732246 9.0038183442515 6.8800128024185 7.7028739579046 9.0556437299626 6.9420592125099 8.8215512081878 8.8059953977393 8.7181910586479 11.302239603791 7.8092670900279 11.042322842966 7.8809522786621 6.7272817006552 6.3217651271427 6.1566468731663 4.9331022720723 7.3529734966216 5.4757197192598 8.3769377861953 9.0916500856046 8.7445886506975 9.7941075218601 8.8428108987964 9.7072578526045 9.7167426969588 10.109218630133 10.418777565832 8.298860555418 9.5530405469711 9.3277547748269 5.133933324525 9.9765563914434 9.8804859219964 9.0357862746342 9.9878533015994 8.8830450203522 6.725388840925 8.5223088715461 8.3936172276433 6.8312708048577 6.6970141110407 9.8693248496919 9.1121122472061 8.2704362765514 10.684010549723 5.3842295705115 8.6303765189211 8.9130892067434 7.2108740289963 6.1714065839077 7.4289233325057 6.4156361488636 9.2650340267008 10.123669439656 5.7354254837094 8.9015725764169 9.1453630440355 9.0245440482938 7.0470352785423 8.7102044792245 9.1622982748545 10.037593282266 9.1116865503335 6.7185431062545 12.557863044109 7.7740038916075 8.7887207370107 5.7040518175958 6.2181815190012 8.5830125245174 9.9221134071324 8.4217061183204 8.129698974836 13.027297769012 12.103280124612 7.1869771088656 7.9636746585031 9.20803736957 7.9716376555538 7.5891669873908 8.8759376568586 14.776357852802 11.038389836988 6.336108866998 11.755707444921 8.5891511357427 11.196901922647 10.804743625581 9.1777524823276 8.2523297586172 7.8268369962351 7.288571026797 10.073259227983 8.1202300029618 10.339328177642 7.5634944657232 9.3476804809014 11.83102780732 8.4978426902759 6.2331478412908 8.7350108024636 11.579023852833 10.169262831387 5.9064828818393 7.6337973064332 8.5936353259784 9.0219918810986 8.0419813751526 9.9541705312766 9.0067091772575 8.827331946828 6.661541732839 7.4758172611405 9.042021227554 7.7287815294596 11.748091069226 7.3745068504696 6.683864064063 9.9130014295926 8.2986057978919 9.6849848885097 6.5291077036932 6.444354999936 8.305207712244 8.4266859214514 12.16839460467 6.9564673458458 6.1358799097908 4.658561666327 8.0260002721734 7.0575721465094 8.127702466281 8.8700946114737 7.6690192376216 9.1613792334239 8.4195274068012 10.049298825589 7.9142917273809 11.977921987564 4.592387241416 5.1268744883284 9.750561578145 10.353676181764 10.710590489948 9.5972789115106 9.2786655464682 10.182677222118 9.0762514264736 6.2904074684641 8.3390318521699 6.0351837712699 8.3553982472677 5.065041563331 6.2711070060244 5.8040295739384 6.0926998091007 7.4019058403404 6.4494323865268 8.6172315961296 6.3713262625136 4.9841795147349 7.367565643747 8.2765348062971 9.3363483372476 6.7096828265215 5.8789590003663 5.2458001814901 7.061645012924 10.073406447227 9.1745094285948 6.4906039633309 6.5140792516517 5.78436910824 7.1443694071184 8.3161875611677 6.973534332708 11.775733053619 10.28151465378 5.9556093121351 5.119680930323 6.37908667052 8.638185985346 8.2077106731091 10.3698768508 11.925851126443 8.0530241999683 9.9037617861947 6.5043540597232 13.923823986573 8.1441891187992 7.3446861295304 5.4861395945383 8.7621814700959 7.3174544366036 8.7560288742027 6.7538878690563 8.830916747992 8.7228301493157 8.6474288402652 10.509993126373 10.679317318413 9.2449550316423 6.6096760042234 5.6996564635231 10.889135387688 5.7853650320366 9.2304855510255 10.550491219091 6.1365396774106 12.311855645004 7.4522686659761 6.725301825783 7.2051745253494 8.7598567221974 6.5682723536324 6.1947586883384 6.8454735397943 5.2433048414628 6.5263880831086 6.1329132955148 11.481555914309 8.834636873226 6.2026702643907 6.8555695449933 6.721214434431 5.8548867814469 6.5332379273886 7.8544293351615 6.9449846218757 7.11665167065 10.616632609184 9.5601948683296 7.7613766824483 8.0743286305652 8.8786767895701 5.1670750723075 7.1678445763482 4.7103763443814 7.0762064018352 4.9843152139554 7.1246309388281 9.6265078532502 8.7737097859229 5.145215333902 8.4207246725657 4.4285011406351 8.1900935416872 6.4450796590173 7.0041557471053 8.8848862715925 11.135892112964 9.7857951803872 6.8425917789658 5.2830733120622 4.1895119349125 6.1340801856798 9.3622604921006 7.7701364580852 7.8245280015922 7.3809675583711 8.531875106496 7.9138976680107 6.4638396539631 6.4749351320487 4.4967723500121 5.7380261872555 5.8486340929213 5.0356423081396 4.7700976819285 5.1387368802225 8.6949390784575 6.4264874410868 4.569032809925 4.1240174621927 10.023773292726 7.4580734289276 6.3571675682691 6.1631058074531 5.3510231652456 6.070591642751 5.1306796831774 5.3189135944184 11.210045711031 8.083395416347 6.8253135767279 7.3685982879611 9.4685793095425 7.0936016543769 7.153761766821 4.4718265435617 8.2753520575507 8.7713705309966 11.281810132933 6.2534334869817 5.5209777686044 4.4941353395074 3.8763029381428 6.0266541145075 8.0297901776262 6.1536509614314 6.4003036538528 5.0960123019897 5.9359262113515 7.6340098706182 9.584121839109 5.1574257595272 8.3367795465041 9.510477978978 4.0398410311963 8.0007686442338 11.056228431754 8.9882190482644 5.0949852150938 7.9897837117206 6.7272735578136 5.9998628549218 5.5833563241126 4.8392628495302 9.3367722090758 9.5123224631134 4.7053670464459 7.3846478707684 6.3696687016618 5.3641953745963 5.3513898128154 4.4181509794016 9.8704019897927 8.5508525312898 8.0050991187873 6.3098305748603 8.0499086668759 7.5058523314687 7.6970593182174 6.1940004513109 7.9074293904572 9.1521009759955 8.5070575684549 4.7214410369539 3.7389281816025 6.6243538492219 5.5733982856685 7.6296726568129 8.6039546560639 4.9384291695078 8.2630535398727 3.7408713110275 5.5609491499544 3.6246966223654 4.1494586988781 7.8057407590854 4.8135146666489 6.9800904312758 5.3871648557427 7.4218104647557 7.1033667774266 5.8205686692027 7.0972244800286 5.159235453731 5.7420280317141 5.5464900235442 5.3870365968448 7.3664490320142 5.4205091431812 6.552046024737 9.3889135161821 5.1142323570434 4.5506068821256 6.3106079258515 6.1172583070315 10.999302859571 5.0273650591641 8.5761050396681 6.4420424173795 8.473883281031 9.0130851358205 5.3051319789958 3.8201597137536 7.3948537104517 6.4849512690693 6.0848866751887 6.2199332896562 9.8542763926644 7.0451650478154 4.8905324400255 6.4816754833409 9.9693761021959 7.4565279990392 7.9515068752468 6.9759007424014 7.2915000871055 6.2179971054029 3.8873961895612 6.5854638814583 4.1249894675394 7.2393743145214 6.352130830719 6.7187360757538 5.5968881180461 6.2527350747059 6.4360215155035 6.6184476007618 6.6499948088253 5.442736006127 4.3891953522305 3.7250980444489 4.6439125788979 6.293628998569 8.4575051168938 6.7399917818527 5.9203178278513 6.107272261466 4.9854431515749 9.6842710381249 4.8357149130815 9.9678265059753 7.2340028761023 3.7519206647398 8.2409622292231 8.0140962829784 5.7858359115398 7.7569786776145 6.4824628677515 5.3774473561968 5.519631811426 4.8365197975272 6.7751932634926 6.5533117401161 3.915726269566 4.6697508622816 4.0175036094012 5.1245909031366 4.4868419162226 8.2217029022134 4.9978756503503 7.5603888075461 4.4635065387391 4.6127614757548 4.7551652962672 6.7295231274266 4.1023208898257 4.0976109670309 6.1416276195355 4.6021988126348 3.7266677601261 5.2995517477275 8.1541005115592 7.7890500387065 6.3984548561773 4.2499441981298 4.599771973231 4.4261014768414 7.5220506022785 6.6193708459645 7.2617652138247 6.3305120152415 8.6342313596238 8.113230988646 5.1401654723138 8.2119045123988 5.3368106939434 8.0103421716492 5.574064940749 7.5064693813118 8.3998065010065 6.5042655823959 7.5967255920657 7.2007002388637 7.5571052011713 8.0523807589756 8.2611036361597 6.8684783246939 7.6985436424954 3.9281787633123 5.0451158584415 7.6550404349325 4.4681539197574 8.5844260696301 6.351288274306 5.6314888040066 5.7024449890355 5.6971028188787 4.9135660704252 4.6867009124647 4.6023630634464 4.3138999599354 4.6745797773277 9.3684416328402 6.8672656451832 8.9424356347591 9.2318556837487 4.5778017692104 3.6875698180578 4.8320068293769 5.1117008285354 5.5079257779531 5.0446099447919 5.2427368569891 4.900771007854 5.6341880679453 5.8641036320624 5.8234325010478 5.6576311407751 5.8246983416908 6.2370538489026 5.3552752442796 5.0674199873996 7.4075781366178 7.2606854020411 4.1750611094694 3.3977736700412 3.4452101923555 4.1558918300447 3.8291677938983 5.875924388637 5.2586405751098 6.1818280017942 5.8028699505207 16.281374468381 13.227894644266 3.8635148520676 4.2321031640681 6.7892108283014 4.9368168539781 3.5255865957539 3.7575050953384 4.7572603460213 6.4385908355594 9.3793488738346 5.9627626198885 6.905825732726 4.6943603749927 4.8529340637334 8.7154908145616 4.5878478478712 6.2907953758388 7.8827708566143 4.4364197850517 3.965505825725 6.7286454496371 7.3318915553621 4.7322190096299 4.2486332941042 4.1997525436116 5.7231711037207 3.9012428437237 4.6007620203997 3.5387296941984 3.5390359231376 3.8926852354293 7.9537981056957 4.343692711159 5.0470357550129 4.3539436109371 5.0229810901878 4.0735192599972 4.962944196922 8.2677317926729 3.5579750463444 5.7763545259082 3.4576851524582 3.8326920861905 4.6900205647831 3.9260078636688 3.7535087401822 3.7171165814989 4.1622667094753 3.8603303963983 4.1856999336012 3.7830994662984 6.9084081591693 4.6215189859605 3.6459166893482 3.9821245853682 4.453639479212 4.4572085158096 6.3134040966332 6.4558809212911 6.6903858317134 6.4945548087054 5.8136912527617 6.1730641092959 5.4586052089869 5.7314988581011 6.3881048094058 6.1200358814747 5.1417598221033 5.5300817449858 5.6077335220052 6.46897669711 5.9443654427821 3.4363338230781 4.3676875077538 5.3587745633413 4.388727855382 4.1282581937721 3.817547399637 3.9495039618717 3.4773078593515 4.16982960753 3.7348858000586 4.045478211371 4.6001052177164 10.478898878034 4.1160344306472 4.7396008485963 4.651835002307 10.418146231812 6.6963827830789 3.7036065928156 3.7174788309488 3.4222255280299 4.2100592553726 4.508190637164 16.877378560803 3.6586290806475 3.9160429039204 4.1057908176507 3.4469345158277 4.4728484778384 5.2375217640089 4.7188565560101 4.6042395114632 3.6615694941785 4.6484913894992 4.0163948116833 3.5355729978324 4.2766232990903 3.4551193712296 3.6528071268593 4.2318827638893 4.2357673212004 3.3861674481212 3.5995872145281 3.2868798351036 3.4484621677425 3.315094058993 3.4204683749735 3.5449953531466 4.1504273873005 4.0922621035617 4.8686787808698 5.0710796771374 3.6871234900958 3.5340780803216 3.4278185996846 4.075997154673 3.606431541479 3.5362232670476 3.5158750243286 3.5236571508451 3.5055334097614 3.6166811315405 3.4124044758377 4.1668197309843 3.3017456435418 3.4893106180199 3.9641102418578 3.8959872008072 3.3956275082733 3.3753946683833 3.5045601515758 3.6018903538116 3.2948630594672 3.2874341841581 3.4085700626765 3.4527654004946 3.3583017462881 3.4850203084045 3.7946280015203 3.561744704415 3.655126796829 3.4110112502748 4.0897982167235 3.3936403937493 3.580731225525 3.2694278098389 3.3281377522148 3.4054686577229 3.3673688938454 3.4815618371666 3.4494008207944 3.5673847276394 4.2063978392177 3.4817721567396 3.7993518663646 3.3538097443141 3.4206504069505 3.6425382698408 4.1012752047129 3.5938853763094 3.539503391892 3.3518327210348 4.2932976510036 3.6855656437712 4.2864838895073 3.8660499523906 3.4922474816556 3.6208460664977 3.5602710432332 3.3307157175666 3.7612268833745 3.7284474530736 3.6357975600155 3.7620425740277 3.8094522442316 3.609717977194 4.0332525688593 3.3882582500828 3.7047490927901 4.3355007324258 4.1481112479846 3.9275916339591 3.6234177280385 4.0380354010686 3.3757878497062 3.7741577902201 3.5105426475626 4.0383180249482 3.7601912946245 3.9357048946735 4.2024329399112 3.7389666816218 4.1888116676493 3.7983945777918 3.8508565648117 3.9444752527209 4.0574612585562 4.074313235849 3.9235156102355 4.178014271916 3.5851993025499 3.6183568673573 3.5401386731336 3.6109125594677 3.7700087032027 4.2019578565612 4.1433274615821 4.0359130946284 3.6844097082534 3.9614685642487 4.129282338206 4.1485693290653 4.4168180566198 4.1944564564162 3.7378937380377 3.7839440312852 3.6442574707502 3.8503613329171 4.0294737915621 3.4928622918959 3.83404224433 3.9191106992746 3.6488409997558 3.8066146894606 3.6688446760792 3.9674047860178 4.0062781673736 4.0813198364925 3.9475255745903 4.2925503466035 4.2535580925299 4.1504790218561 4.128626382382 4.0741901927086 4.2205361332108 4.2487390386109 4.2260840664615 4.1888998696227 3.9674543128425 3.6584038455289 4.3389148517813 4.1486400574098 3.9594136556328 4.074851149296 4.2017472035498 4.2148772135663 3.9408706207294 4.078064053867 4.3101621981814 4.3412320489908 4.3665015064172 4.4141752325822 4.2086442182823 4.4325527262946 4.4141832856502 
SCALARS 200.00_0.82 double 1
LOOKUP_TABLE default