# vtk DataFile Version 3.0
d-2__ created by libgimli-v1.0.12
ASCII
DATASET UNSTRUCTURED_GRID
POINTS 1303 double
5.625	0	0
5.511811217919	-0.146388704457	0
5.676386535709	-0.13519637448	0
0.25	0	0
0.175228502521	-0.179050409113	0
0.326009290428	-0.144330725415	0
0.375	0	0
0.990207725992	-0.114957291708	0
0.841075314552	-0.137634199948	0
0.926498288371	-0.349340723189	0
-0.001071200562	-0.386156929004	0
-0.003317641763	-0.130454088023	0
-0.192720422374	-0.216308252768	0
1.25	0	0
1.175215748534	-0.200562384647	0
1.341115762259	-0.128605193971	0
1.375	0	0
2.25	0	0
2.168494514827	-0.19848886597	0
2.338304607341	-0.128945294536	0
2.375	0	0
1.911268305082	-0.334701951691	0
1.986191885908	-0.110806668109	0
1.838390258011	-0.128853462534	0
1.75	0	0
1.670105949089	-0.197137117999	0
2.986685504441	-0.10889534818	0
2.838723720416	-0.127406828384	0
2.912854264006	-0.329775839393	0
0.75	0	0
0.664572693147	-0.222613872306	0
3.25	0	0
3.168798596028	-0.193682232199	0
3.337828500197	-0.125181208794	0
2.875	0	0
2.75	0	0
4.25	0	0
4.161099470995	-0.193412132741	0
4.332718836325	-0.127723897736	0
3.83511440706	-0.12403687807	0
3.875	0	0
3.75	0	0
3.901908238995	-0.321557035295	0
3.983050435256	-0.106770030737	0
3.665527023987	-0.190866765849	0
5.25	0	0
5.164693411436	-0.21656556845	0
5.338419985376	-0.147288917438	0
4.834321952324	-0.135810575609	0
4.875	0	0
4.75	0	0
6.25	0	0
6.178399669611	-0.137425451145	0
6.356205370496	-0.193853696818	0
5.817814980918	-0.161175429964	0
5.875	0	0
5.75	0	0
6.611939839541	-0.314381537706	0
6.522886280605	-0.104721203126	0
6.75	0	0
6.669178832877	-0.119404962711	0
6.836073690852	-0.177498311423	0
5.39059629209	-0.37339102075	0
4.660917359886	-0.204007052252	0
4.902096977384	-0.356327271651	0
14.897042426984	-0.319128540459	0
14.98121339776	-0.105010975498	0
14.832720105416	-0.123004000492	0
2.669265824618	-0.196872625129	0
7.656019919505	-0.144451020927	0
7.75	0	0
7.625	0	0
6.625	0	0
8.75	0	0
8.672937461928	-0.164309120831	0
8.834289374889	-0.109279841483	0
8.206809119751	-0.294811800109	0
8.187056112549	-0.110869448227	0
8.024316200302	-0.129362764133	0
7.157390904024	-0.111206354394	0
7.25	0	0
7.125	0	0
8.25	0	0
8.125	0	0
9.75	0	0
9.651145885459	-0.185384966231	0
9.827054067621	-0.122428024454	0
9.381816956327	-0.305807769915	0
9.476753337472	-0.101567493772	0
9.327490061855	-0.116748040282	0
10.75	0	0
10.655660803951	-0.196164841752	0
10.830485405183	-0.127989131147	0
10.386748323888	-0.329675548046	0
10.478464938155	-0.108955040137	0
10.328560245085	-0.126395562242	0
9.25	0	0
9.375	0	0
10.25	0	0
10.15270392044	-0.192469144253	0
8.328856990144	-0.128933011689	0
8.375	0	0
9.153857570119	-0.175508527296	0
11.75	0	0
11.660624577581	-0.201812344528	0
11.833823570609	-0.131890823957	0
11.395399221028	-0.337817920558	0
11.481219500696	-0.111845889235	0
11.331881500183	-0.129806070652	0
12.75	0	0
12.669299873111	-0.199190799603	0
12.839534650452	-0.128328673855	0
12.40897914742	-0.340185307353	0
12.485654611126	-0.112072117633	0
12.336727606385	-0.131188239877	0
11.875	0	0
12.25	0	0
12.164627546098	-0.202605127067	0
13.75	0	0
13.669268468008	-0.186168180444	0
13.837322273199	-0.120178339978	0
13.416957459915	-0.319650485848	0
13.487510959619	-0.105281058988	0
13.34010202956	-0.123833443479	0
14.75	0	0
14.66080663422	-0.189613659871	0
14.399926333663	-0.319306441484	0
14.4823067449	-0.105599641009	0
14.334114343934	-0.12250571155	0
14.875	0	0
15.25	0	0
15.158227025815	-0.185762723401	0
15.330441202311	-0.11956675178	0
13.875	0	0
14.25	0	0
14.163960939829	-0.186365139356	0
12.875	0	0
13.25	0	0
13.171786689458	-0.193064330135	0
10.875	0	0
11.25	0	0
11.158129238503	-0.198418008741	0
7.31587636932	-0.171642077952	0
15.3902841013	-0.308450173235	0
15.478958243586	-0.102394874489	0
-0.125	0	0
0.125	0	0
0	0	0
-1	0	0
-0.706889652808	-0.331752981492	0
-0.5	0	0
1.125	0	0
1	0	0
1.625	0	0
2.125	0	0
2	0	0
1.5	0	0
1.488007132967	-0.109900770852	0
0.5	0	0
0.474245721096	-0.130043839003	0
0.625	0	0
3.125	0	0
3	0	0
3.625	0	0
4.125	0	0
4	0	0
3.5	0	0
3.485533411273	-0.107014956798	0
5.67736414417	-0.368119689468	0
5.125	0	0
5	0	0
4.98353533542	-0.118243061674	0
6.125	0	0
6	0	0
6.009467825362	-0.139471566496	0
6.5	0	0
4.625	0	0
5.5	0	0
4.5	0	0
4.481603306259	-0.111052305129	0
2.5	0	0
2.486482293556	-0.110456056597	0
2.625	0	0
7.828740664136	-0.157959666613	0
7.5	0	0
7.497789303332	-0.098817221798	0
8.625	0	0
8.5	0	0
8.493725508365	-0.094448160765	0
8	0	0
10.625	0	0
9.625	0	0
9.5	0	0
9.125	0	0
10.5	0	0
10	0	0
9.976983002093	-0.106037154081	0
10.125	0	0
9	0	0
8.980258705317	-0.095443922293	0
12.625	0	0
11.625	0	0
11.5	0	0
13.625	0	0
12.5	0	0
12	0	0
11.983083448534	-0.113269018621	0
12.125	0	0
15.125	0	0
13.5	0	0
13.125	0	0
14.625	0	0
14.5	0	0
15	0	0
11.125	0	0
14	0	0
13.984735949845	-0.103165953766	0
14.125	0	0
13	0	0
12.987740386932	-0.109238757727	0
11	0	0
10.980033547654	-0.110118532971	0
7	0	0
7.012790729926	-0.096165366155	0
15.625	0	0
15.653391866104	-0.184257106926	0
15.75	0	0
16.25	0	0
16.151956269841	-0.190746813766	0
16.328162175541	-0.125534698515	0
15.827345422636	-0.12109528269	0
15.881623705918	-0.315197408181	0
15.9768075603	-0.104841845177	0
17.25	0	0
17.155473725888	-0.187015736188	0
17.328334720487	-0.12053442359	0
17.375	0	0
16.97978281674	-0.105790715925	0
16.830585534618	-0.124270763258	0
16.892220832712	-0.321708894118	0
16.75	0	0
16.655725821363	-0.19281499559	0
18.25	0	0
18.144056513649	-0.199584109463	0
18.322695877645	-0.133173012767	0
18.375	0	0
19.25	0	0
19.156955168382	-0.212194778097	0
19.332395147696	-0.137501625504	0
19.375	0	0
18.978107771567	-0.118463258117	0
18.827251646435	-0.137822523984	0
18.884674261801	-0.359498065923	0
18.75	0	0
18.648603260315	-0.210400354993	0
17.973004229039	-0.108213471414	0
17.823362138939	-0.124125311933	0
17.87020700187	-0.324156104502	0
17.75	0	0
17.64837652944	-0.187413016584	0
20.25	0	0
20.167288289523	-0.206556633625	0
20.33799343326	-0.133667464393	0
20.375	0	0
21.25	0	0
21.172020853715	-0.201327641466	0
21.340729826518	-0.130206344264	0
20.875	0	0
20.75	0	0
20.839555732676	-0.132066213667	0
20.987710400762	-0.112937783384	0
20.915843633601	-0.342386775443	0
20.669904108595	-0.203936882105	0
22.25	0	0
22.168893714495	-0.194483818359	0
22.337089427477	-0.126591453251	0
21.875	0	0
21.75	0	0
21.840184239699	-0.127666317168	0
23.25	0	0
23.162361450448	-0.215073727418	0
23.335945395372	-0.148199257458	0
22.875	0	0
22.75	0	0
22.83504078106	-0.133126573368	0
27.412614995451	-0.337768305098	0
27.406417478875	-0.760610856776	0
27.663031754041	-0.476449210851	0
23.674319496044	-0.139602731619	0
23.75	0	0
23.625	0	0
22.902876337082	-0.348446434986	0
22.664415839639	-0.19979598046	0
21.987454968006	-0.109075483352	0
21.916658702332	-0.330379709848	0
21.67241042914	-0.19774510361	0
19.984830323221	-0.115851903278	0
19.835879034474	-0.135573032779	0
19.906686139011	-0.351521653308	0
19.75	0	0
19.663378765328	-0.209646647928	0
24.75	0	0
24.672305039303	-0.121865624882	0
24.84054616259	-0.178479133746	0
24.25	0	0
24.125	0	0
24.179559510218	-0.145425217914	0
25.656694723316	-0.141492417978	0
25.75	0	0
25.625	0	0
25.25	0	0
25.125	0	0
25.159224348757	-0.109007087058	0
22.647257188685	-0.476376729768	0
22.872248033711	-0.780455516934	0
25.317652966423	-0.167196322239	0
31.908525182248	-0.237434634112	0
32.248547795208	-0.367887731521	0
32.025	0	0
26.398062594932	-0.327144710524	0
26.335089901602	-0.124890632532	0
26.169730315141	-0.188549564961	0
26.75	0	0
26.662500836065	-0.197477656933	0
26.835401004001	-0.129534360312	0
26.375	0	0
26.25	0	0
27.486869476066	-0.111474770432	0
27.338367230812	-0.130187170762	0
23.816158307302	-0.168335740772	0
23.875	0	0
24.625	0	0
27.75	0	0
27.67023663024	-0.198727549038	0
27.839431305592	-0.128541986375	0
27.375	0	0
27.25	0	0
28.75	0	0
28.666013303123	-0.192953151514	0
28.835335299513	-0.125393524551	0
28.875	0	0
28.41074998604	-0.32692743598	0
28.485854239984	-0.108071323096	0
28.338261561589	-0.126341817439	0
28.25	0	0
28.169650699531	-0.195402875109	0
29.75	0	0
29.656991685033	-0.201213204108	0
29.830700495316	-0.13323291855	0
29.875	0	0
30.75	0	0
30.665605116896	-0.213760177502	0
30.837855425721	-0.139272404211	0
30.875	0	0
30.987248292653	-0.119871959545	0
30.911614165903	-0.362389547989	0
31.25	0	0
31.174363802618	-0.217041176186	0
31.346460135447	-0.143418487957	0
30.400599561582	-0.360265197586	0
30.483280501431	-0.118794220148	0
30.3336351656	-0.137924489201	0
30.25	0	0
30.159375273254	-0.21004086356	0
29.392934647931	-0.331414044449	0
29.48031118177	-0.110263057575	0
29.331777210358	-0.127344913482	0
29.25	0	0
29.160548153072	-0.194064979946	0
27.167334579456	-0.200440763045	0
24.359650796728	-0.20304719459	0
-0.25	0	0
-0.404335947278	-0.221464959739	0
16.125	0	0
16	0	0
17.125	0	0
17	0	0
16.5	0	0
16.478267427857	-0.108008273171	0
16.625	0	0
18.125	0	0
18	0	0
19.125	0	0
19	0	0
18.5	0	0
18.473681471998	-0.115768873419	0
18.625	0	0
17.5	0	0
17.47687846862	-0.103462148239	0
17.625	0	0
20.125	0	0
20	0	0
21.125	0	0
21	0	0
20.5	0	0
20.486446843971	-0.114298370976	0
20.625	0	0
22.125	0	0
22	0	0
23.125	0	0
23	0	0
22.983281399654	-0.116385827149	0
23.5	0	0
23.509214189908	-0.149359691049	0
22.625	0	0
22.5	0	0
22.48467632496	-0.1093719097	0
21.5	0	0
21.488472844532	-0.111208801785	0
21.625	0	0
19.5	0	0
19.482219828947	-0.117572233456	0
19.625	0	0
24.5	0	0
24.525433875838	-0.108080714825	0
25.824234283709	-0.149177038136	0
25.5	0	0
25.498573523516	-0.096586408813	0
25	0	0
25.014769107289	-0.095147895568	0
21.919931345447	-0.741308582321	0
22.160361550711	-0.463896476278	0
26.625	0	0
26.5	0	0
26.482631880244	-0.108512805864	0
27.625	0	0
27.5	0	0
27	0	0
26.984612185119	-0.111680714924	0
27.125	0	0
26.125	0	0
26	0	0
25.990349817319	-0.10847866492	0
28.125	0	0
28.625	0	0
28.5	0	0
30.625	0	0
29.625	0	0
29.5	0	0
29	0	0
28.983089608831	-0.107750428826	0
29.125	0	0
30.125	0	0
30.5	0	0
31.63125	0	0
31.5	0	0
31.494696987447	-0.123712578064	0
23.671261205816	-0.380102168636	0
31	0	0
31.125	0	0
30	0	0
29.980228243528	-0.115525062547	0
28	0	0
[...]
CELL_DATA 2263
SCALARS 1000.00_1.32 double 1
LOOKUP_TABLE default
7.9418034030852 6.5033974579351 6.5387566371989 7.3333946392172 6.523538733011 7.8852621399617 8.0025211213261 8.6597300666701 8.6370845750219 8.677327111976 8.676901625088 7.7433051789225 7.1511369902561 7.0180969647131 8.0423026410221 8.14632683617 6.8056416982521 6.9830735735283 6.7262796160844 8.0825464543692 8.4234591316921 7.2808249189506 7.7233641192303 7.0488570929902 6.9745635092777 8.0597699626481 7.8382758107965 8.1733892471978 8.3386083571234 8.6687880903519 8.1493017829766 8.5583149377616 6.9336248096338 9.4428102079669 9.0342862019402 8.4316322851215 9.0730614157943 8.9393614932917 8.3846437434908 9.5464477132013 9.3209977633216 8.3222868969256 9.2303673226965 9.2512662046452 8.4198424691803 8.9382806672929 9.0948779705827 8.7626730728887 8.673953388388 8.8698828420773 9.0269339867993 8.9860966780357 9.1494802022688 9.027889542779 9.3538729943451 8.881370392536 8.411812737055 8.9825671416968 9.4393281751814 8.9067536119624 8.9465675862302 9.581746818945 9.0735214567919 8.545993790153 8.1800417163263 6.5832888628246 6.4994582416374 6.1552236883132 7.767670537247 7.5584184424197 8.6313543340976 8.864442609658 8.4455789751684 8.7467241591797 6.8782642054523 6.4510748403626 7.1898808527396 7.5938488308299 6.6746221616401 7.4693490533423 6.7450038198548 7.9737440895853 7.8232205815024 8.286102244827 7.78415756212 7.635792414932 7.0006646717815 8.3027164574739 8.0675733475857 7.912117254967 8.353252460617 8.0880419395373 8.6213830542544 7.0634700233841 8.6152574560205 8.6598082421 9.1421832166824 9.6303053092693 9.0191988430392 9.5468418598732 9.5643690656176 8.6753998825915 8.6163749729029 9.5785555334457 9.1117945716951 9.1569876842511 9.0689973516423 8.9083553365742 8.6808312774445 9.2643870935401 9.0054293779249 8.7234011853985 9.1560794271367 9.1686361974477 8.6054796027574 9.1932941279603 8.8499477592276 9.5775367047578 8.8076361319324 9.1479412247186 9.4995630152533 9.5314313883683 8.9074800503021 9.3034194679623 9.4319348698886 9.0891298662789 7.9770935846342 8.3580512980337 8.8668896022914 8.9684362822365 8.8217353523315 8.8058377032661 8.8058098166665 9.5046493119986 9.6074927759888 7.5152126355375 7.4085227751516 9.4164318325847 9.6258779378166 8.2245868026906 8.0252762279278 8.5140476248226 8.9349341434603 10.703098911265 10.724217828659 7.7085592652335 8.8806587584369 8.4816064664953 9.0421260696685 8.771320524913 8.5873905637284 8.6742939387718 8.5074593246391 6.6054310456311 8.2027126307729 8.452991915653 8.5095794475197 8.5915073794521 8.4369852834277 9.8561446500353 9.5694097223284 8.1725022127313 7.4186197510875 8.8277997907597 8.3529709814847 7.5003042869651 8.3842324162728 6.2887900749886 7.9106965873046 7.312055775077 7.993364609263 7.213389900346 7.9977148370954 8.0790034887481 8.0961844449495 7.7758115514353 7.2053466716738 8.4330397905338 8.4747643615811 8.2417686333894 8.1748586334732 8.1454817495878 8.0714771007417 7.1816932719694 7.1872803380521 7.0768520737418 6.6275872387119 7.2281382362167 7.3083226472109 8.4173685351326 8.5512183831858 7.162376655407 7.4135893070643 6.4409131195123 8.8885776424747 8.8210438148621 9.2276461032674 9.4552441048858 8.9729446555196 9.5443837909697 8.2546807210022 9.2583287380127 8.826649624386 7.670391585863 7.7433051281697 9.343714383657 8.8057785802066 9.199811987258 10.57927427064 7.7590848724527 8.1848686851353 10.128543756791 10.805019225597 8.7684906965108 8.8184459194179 8.0837729332033 8.8459339669153 8.4998274119497 8.5675571266593 8.8033738263218 8.7929390762089 8.0894754422905 9.3837662763297 9.614949886083 7.9158269197328 9.4858061175945 7.889392923705 8.7365586077889 8.8727623108299 8.4434472851508 7.5133429425542 7.481437242934 7.7920279447938 7.6753965360787 7.4721215449199 7.2128207383812 8.2881141351083 8.6059887540253 8.1347728239998 8.4271196610235 7.2075808794305 8.5290740442472 8.6564760994962 8.32149593004 7.3908246380306 7.26295540868 7.174027788561 6.7294193384002 8.0000466886609 6.9488967852812 8.6146410632567 7.6656395678649 6.6868859298179 8.1009955240734 8.4287344867351 7.6302717487854 8.3127702770862 6.6512620750702 8.5478269752199 6.4709881135519 7.2877623860207 6.7308855947798 7.6509195423238 8.2898049808266 8.7976441805621 8.6225836158035 8.5314984165589 8.8583348148371 6.9770143770409 7.4498414571313 7.3736502948572 6.8226267413154 7.6961064615927 8.4877325454586 6.6873573073276 7.1609582544216 8.1639348862159 8.1750029541886 7.733885946043 7.0640780911367 6.8611614107167 7.5775630844792 7.9037887259715 7.6723661019896 8.2775470120486 8.466176113166 8.4880281286751 7.7766301667564 8.9959557704013 9.6158516582489 9.2216583989093 8.7756656178152 9.5385519849123 8.7860848608594 9.14177187886 9.5581752200528 9.5815748858674 9.0953492231138 9.5504494496485 8.8518165889647 8.4123991479863 9.2038591160715 8.9397756474641 8.6259025245909 9.0612933252386 9.1441699492643 8.8916202926149 9.1246830663768 9.2426165326144 9.4680700352847 8.7291523317073 8.687387220471 8.3831777671934 9.5613113564207 9.4502759722633 8.8524740094885 9.238747069419 9.2852995779529 9.1637664226022 9.4153826130296 8.839067575356 6.3593505149647 8.6283233918168 9.1944649606654 8.7697032491112 9.4457673720558 9.0024595010171 9.0937208378431 9.4699324440231 9.6384791063604 7.9967426265754 7.4585979303153 8.9932468467061 9.8050849371664 7.7752433748077 8.5718579769461 9.3478194315594 8.4440894409964 10.681401704696 10.47399470441 7.9334130512289 7.9554760006712 9.7137974084176 8.5050458164046 8.7825928747062 8.8881404375263 8.8286434384632 8.5932716572625 8.0772183388596 7.7982700246683 8.6853530466336 8.6901300782296 8.1824423553294 8.8343288229725 9.4988727627799 10.216237189917 8.8737868183825 8.5435946290894 8.5900491113632 8.6316984319123 7.8791871471395 8.7308114738232 7.637156710187 7.1863434064717 8.4532754985539 7.8497695271042 7.5453121022256 8.0942016427787 8.4176267170031 8.5994633345891 8.0986100266533 8.3898165651973 8.4165956398139 7.8489779129659 7.2247917126334 7.1114175496901 6.8256399426588 6.6241993279858 7.5008460096415 7.2848388440439 8.6320513224346 8.5319793026725 7.1775016858368 7.3661601793894 8.0380209729678 7.7477554466731 6.511447212067 6.5325992407544 6.6341825818364 6.5991742814741 6.7023684855461 7.4045693928025 7.2354754326392 8.1846841804577 8.7484916021003 6.9382686861271 7.4696602771536 8.1090394031754 6.8374721729984 6.6904140602505 6.9744048745761 8.33636924391 7.0901231932044 8.1161078820234 7.4407532034373 6.8124357833354 7.5598697113609 7.3804785728535 8.0073394551914 6.8055361590186 8.1482217198824 8.7295492430312 8.2814308657189 5.8004994455431 7.2512695804522 8.1612662526965 8.6356376346947 8.5008047257928 8.5456819451343 9.3788120149212 9.4878839807809 9.0287722917313 7.9526306177686 7.991595158576 8.1977684171779 8.9010900544538 9.3371553362252 8.585783837307 8.4753577584226 8.8989711049558 9.1739411382738 9.3011844523407 9.0491816532545 8.0752936133561 9.0251804766226 8.8768320524666 9.0707083069366 8.8201606816615 9.0426193663109 8.6586747563522 9.3982429812068 8.3638950730135 9.2823986593517 9.1610006583033 9.157740925317 9.1958857037436 8.4865239088302 8.8343547716567 9.3465110231088 9.4487260859307 7.0038042295821 8.5464472957192 7.9204102959613 9.1358672060662 8.1824853681108 9.2354986861698 9.7091934531729 7.6694892306649 8.6631567072886 9.169953207814 8.7721770580989 8.0317944307174 8.1737594993932 9.2583849984036 8.1567317685615 7.4378141690187 9.2559555700509 9.0812310624779 9.702077286181 7.7306428195901 7.6137717750756 8.8148500846026 10.049738550713 10.180161692207 8.1997922891752 8.6535890789112 8.5861672100741 7.6530763024627 8.5588646558075 8.6591087011765 8.6154368217309 8.7556226541799 8.0897826669189 7.8331760663882 8.4460340276445 9.400035316251 8.5728081004117 8.688541696751 7.4592682654243 7.2348933314158 8.0602629864073 7.3379607686662 7.8266572196918 7.9012896318395 8.3078402668807 8.4198230749294 7.0941032407334 7.9539621684861 8.2414231228975 7.8121081653814 7.2993437336375 7.8827943122835 8.5420035057235 6.9569205259488 7.2883035997686 6.5751126129686 7.170463215432 6.408952725446 8.2960269812924 7.802710404087 8.2635992326288 8.457413816899 7.8333946233909 7.1682137593128 8.3910337698891 7.430132304935 6.243473775269 6.2618809666437 6.751754271568 6.4392513007342 6.5936304230298 6.6296211523396 7.8997835015303 8.1182493410638 8.4802757992817 8.6139150870634 8.5519153002975 8.7863083758976 7.1723366828903 7.3237213269829 6.8725054069409 6.8760894401634 7.9466972149467 8.3942274078319 6.7789451066425 6.9369376138032 6.5446805022324 8.1591833782762 8.4869252908444 7.1799850163908 6.5775662404905 7.0754207612092 7.2957985696036 7.7092133334899 7.6517389283976 8.4483382179911 7.8647280402266 7.9115355801992 8.232783034911 8.8566284302227 8.5393284183579 9.316575432946 7.1215192533833 9.3923572662692 8.7489647166628 9.0569638810688 9.3755019655764 9.584214185715 9.1294679554561 9.4248392976656 8.3770064393279 8.3292733669834 8.7849681284194 8.86367962059 8.6407902352458 8.9819486059819 8.6488658390812 8.9293538338028 9.0661456597109 9.091175241055 8.7469485365615 8.7708247721255 8.136722562053 8.3104972013553 9.3063432287485 9.4001311279422 8.9829142327397 9.1552156635304 9.0301711173031 9.0953847101859 8.0960400127325 8.7529231522853 8.6344294652133 9.1593147063221 8.9219400287284 9.277244173571 8.9682160389588 8.9467710397331 9.4221422036647 9.708355227043 7.4460813930556 7.3991636151363 9.1276387399012 9.6953522544445 7.9356011539378 8.3161416139989 8.6878385869925 8.6144298923708 10.164595564345 10.595389860971 7.7053605957954 7.8170769681269 8.6506035391451 8.7038437000303 8.6573173708143 8.8530205809775 8.1267965083157 8.608006758427 6.5616311895433 7.8880613564968 8.1868982496977 8.5752166244779 8.3646183572129 8.6968355730112 9.5209159190489 9.899943503335 7.0393785253593 8.360353060851 7.9693009979467 8.6471734217278 7.1916295299603 8.4448476132328 7.6329885406783 7.192600410949 7.6371484842815 7.9159257033742 7.6887821239823 7.9798313165662 8.3455088758711 8.5185647600786 8.1035157591929 8.3009029602456 7.8889809649091 7.9571711802943 7.0853530959822 7.1631107771582 6.6632241983364 6.597353284738 7.2228969523125 7.2790611263676 8.3893312537138 8.5223355068264 7.0851163062663 7.2550999490839 7.1797953146532 7.4859828807591 6.348727308085 8.2595222482876 7.3426417045307 8.3586377020557 8.1308183831144 6.6968740716289 7.6477630798688 8.0222547568866 6.835726693104 6.8072173795518 7.6344743400572 8.1003625559337 7.2881267770747 6.8030973480751 6.802657817667 6.5305854028756 9.1698364310236 8.1235302071624 7.9947034631726 8.1814685598977 7.7244938861207 8.8055740392618 7.4597913012536 8.8050490062526 9.1183197318695 8.5543578321899 7.5147099039195 7.7975031104493 7.8073016925213 9.2381507719343 8.5706199836852 8.886511345725 7.0465226117218 9.0929910943456 8.3442159685999 9.2986298147436 8.9244715480458 8.7942214434434 8.2593247814256 8.5194051130845 7.2168479866912 7.1275482343588 7.8216116121596 8.806530618303 8.1432884537586 9.3399624401628 7.5521079079535 8.2237929084395 8.4300204205175 8.4918728214086 7.7401387068181 7.7852814916948 7.8024620241614 8.2540862087515 8.2893077213349 8.9875906478379 7.7298648335725 8.5270436647588 8.295906525737 8.840313030009 8.2843555985054 8.7429402718354 7.2851714711888 8.9133829483218 7.4259918231206 9.1992918592326 8.8513450526933 7.5008646113229 7.8903460193979 8.8322198673701 6.9849780265381 9.3099677880448 8.2434663241424 9.6951081947373 6.9878981770307 7.2693535961354 8.3694128399175 8.7507067058795 8.1612620056361 7.9395764561597 7.510689420387 8.6525781915157 7.5010178643364 8.6674604060097 8.6094263157924 7.0675485283674 8.1321648468295 5.3246160037986 7.1155198839352 6.7876634311463 6.1220890470472 7.3599775660067 6.6939552891037 7.7078322710582 7.5930195949269 8.7177426986206 6.2980289704222 8.4447534337057 8.3922518584797 7.1441888390871 8.2575886113437 8.1512731210369 8.3885666674312 7.9270912104879 8.3606102104397 7.9272500208331 6.8008909363036 8.4605957578057 7.9911450546683 7.5539057889245 7.2226843527873 7.6404365016793 7.1519299308486 6.9423533070129 6.6534213396415 6.6477176892643 6.3583008406762 6.2710077596866 6.7849266646606 7.2053696603296 7.5583810482127 8.0860226900152 7.7488471037096 8.5187118486685 6.9024108191793 7.1585146442785 6.0351631103086 6.2663372614703 6.9975953788409 6.520411921683 6.2967519784669 7.1888403536501 6.3953483868124 6.5240451280719 6.4782382334356 6.6712936690038 5.9123327068081 6.4113145175791 6.1640901618314 8.1065251805084 6.0505445632417 7.5416299948751 7.6548986114732 6.923328859818 7.0064268378456 6.3475939413514 6.9020760547465 6.5570135497706 8.4409950270992 6.414286851829 6.3250604171624 7.2939803595684 7.3597886866933 8.0409579501507 6.8342115962711 7.006529366184 9.0470279355253 5.419461581504 7.858669678673 6.3876909025626 7.6950599100278 6.9921085492895 6.7647067097796 7.1324364696957 7.3815991362026 6.9596314764684 8.0938698393896 6.9896201867335 6.3120566162098 8.6114344856627 8.0816505802792 8.5475732842248 8.2095211294311 8.9906150020318 7.2103677085017 8.745151897034 7.5068419856281 8.1646971030159 7.4127808655695 8.4811802970397 7.5386063735043 8.4785803436974 7.9162696652063 8.9527814236411 7.5463951037797 8.8683590498981 8.4514846034044 8.6162332720809 8.203984351933 7.1309828891879 7.8575611752448 8.7660434487962 8.1577014827539 7.6884201701811 7.1080122675326 5.0504555154908 7.3279323308128 6.2119827354986 7.6617311309383 6.9592159490758 8.3736819370811 7.2723134060654 8.332761080803 8.9129188844183 7.5063735444195 7.5656568168704 8.0766190823279 7.3813162449685 8.1996723801795 7.4281350700471 7.193130865038 8.5569320360767 7.8324676346096 7.8795826587287 6.4632031018781 8.3795878400915 7.6823575778637 9.2753877007747 7.276928273574 7.6771275511602 7.6468057249526 8.2269371628715 7.2997981652343 7.1558375250883 8.3970375083694 7.8295627694822 6.7725703180029 5.7134697241405 7.4412670950604 8.8122984518976 8.0703342693174 6.807773359689 7.0982417608943 7.0824799987848 8.7533544837185 7.9782895903469 5.4754564529253 7.6295922828509 7.3302764867917 5.5981922636595 7.0287920356659 7.7182253355875 5.876084320443 6.7954803960538 7.4307797010057 6.9288108092156 6.3392875264681 7.1058757845622 6.7356027874612 7.681597174476 6.9985721691827 8.0629914457197 7.5320451935665 7.0714607478102 6.5876752508382 7.0731169488265 7.9810596708242 8.3909817292793 7.0652275154501 6.6643349189829 6.3641507793871 7.9870595221215 5.57771742728 7.4887460890227 7.4364861162139 6.4878015374943 6.005907077058 6.4656046027555 5.2416123312602 5.3342213063972 8.1565199327401 6.2306781560152 8.2741569747825 6.6307065287992 6.3097218793642 6.4801453369962 7.4939536534987 6.8037704654881 7.1182940541169 7.892361373825 7.3306703976883 6.2445759154182 7.6521864610835 6.7683785146766 5.401960071621 5.9546312004571 6.2455445564508 7.4157320948719 5.9895895386093 7.8056861481483 7.8967536354138 7.0537440280035 7.8809992327988 8.3476702248237 7.2675530465388 5.4779168063283 6.9952110204275 7.7136043584386 5.306957570275 8.1561194783435 6.8988191154375 6.6385509449006 8.3191975017498 6.0541353789003 7.8904797391207 5.7018790241448 7.8780667142547 6.0537219037584 7.5302941063539 5.616485291654 7.4180821477206 5.747996576161 8.2858337631512 5.1256990805955 7.6743953392256 7.604376337917 5.2003760484857 3.9520203486829 6.0944973406358 6.5879668586621 6.8522471531296 5.7731064023552 7.6237123755657 6.0201353741836 8.3836281776573 6.0101838440005 5.871702751752 7.1923302614179 5.7711957524808 6.8923150802964 5.872976912242 6.5785177645173 6.8130627795586 6.0847302436057 8.3080307583568 6.2544103125583 7.6103846126726 7.9752082066443 6.7547663636511 5.8057024868157 6.8274428155956 5.0616758681855 7.3886317396082 7.6536378273257 7.1723863449091 7.9336702197484 7.1054511098777 4.700509839785 7.8016164347055 5.7357394594422 7.4534024912929 5.5734527910977 7.7710141017712 5.4624247638029 7.2307296541512 7.0788621120804 5.6419275919487 6.4867305448766 7.2752977865236 6.9022504866424 6.5026017838997 6.6021201313446 5.8672705415568 6.4601840451468 5.8821811322557 5.970014488568 7.4452686452906 5.811118264934 6.9240926904245 4.6105200960275 7.6004403349343 5.4020584742867 7.1643252715694 7.4838632527918 7.5993976544253 6.7755511445367 8.4812529878638 6.3597542175287 7.3366708171272 6.6024488290951 5.9818919296852 5.1265005028642 6.8715423888609 5.3388883537123 5.0343363235924 5.877088393365 5.3687243315317 6.0226233358181 5.5849904305825 5.748476811703 4.2762154244067 5.9099252144588 5.7424911336115 5.9475147613011 6.019257964765 5.8813025669032 4.9028721255641 5.7637669833233 5.8193380872364 5.9654275083986 5.8278778064557 5.3148849861561 5.9708897553482 6.014879569935 5.9392199084095 7.1550452027146 6.0517061755188 5.7546399956858 5.7579917011274 5.7004752800868 6.0360392740474 5.4654928587859 6.7064401003325 7.31176096792 7.2430022015931 6.9909023486633 5.3169436605183 6.544942974196 6.0869728156954 7.3052760282286 5.7973664843687 5.2547694920656 6.9938619836596 5.8878400381392 5.0993413710094 6.0628112565861 6.6038331945736 5.4502913306399 5.4346232514303 6.0252208562877 5.4187535201926 4.5326785934599 5.4690680756721 5.1083678619046 5.089619615604 4.5528077998602 4.6638670506537 6.023034830387 4.8743528612872 4.2580757283169 4.0191155512298 3.6864073194935 4.2689641925393 4.4596168901701 6.2063406416954 6.5935289682937 6.1742747144826 6.3401124912173 8.3832144573008 5.2053642242295 5.8276642930148 5.8023115539237 7.0856370498979 7.7324863895538 5.3997741070218 5.6522068307173 6.2208386830452 7.4375958594436 5.9255410978166 5.7490864780447 7.2456713992699 6.1195182940137 4.903936798541 5.2893957831876 5.3067468351292 5.1590079421528 4.420129329827 5.1685231826355 4.5610477351725 5.6793958817087 6.050243282491 6.039160506689 5.11428109936 5.8758932709511 5.942727637078 5.6429748153702 5.0901095247933 5.2050232347448 5.1885332421906 6.2737830537629 5.1076424278128 3.8168817220723 6.2176817794921 5.5673371316225 4.8424304416608 4.7298682025395 5.1662437405092 4.6593189235881 4.4690715907713 5.7004648053287 6.3100250528 6.3434617682065 4.6225364480315 3.9572168978646 5.0353313812578 5.8327816306645 5.9203932614862 5.9227588554402 6.2522788119618 5.3472110809159 5.4434610588211 4.7929926332079 4.6064592517687 4.2324361814795 4.5865796204761 5.3155765503427 4.1823928644346 3.8439456624809 4.8329035353985 4.1312971186968 4.4445507527201 5.1333770991486 4.5157093282857 5.1277044181465 5.3304280921829 5.8057119026526 5.8862763443241 5.1521646966591 5.5719933895659 6.0494467087648 5.0598999621954 3.622969275376 5.7644669754258 5.7496557449894 5.8207556776309 4.6615536075348 5.9239134254861 5.4277853976788 5.3760690309448 5.643550864557 4.995019238815 4.3909332648197 5.2032078775839 4.5974269906067 6.4412756068422 5.9898469152567 4.6990079076278 5.3942588562201 4.6940640742549 5.2494251893661 5.7315036185368 6.1540772734626 4.7119141123317 5.0567797432588 3.8267285606309 4.9103900749158 4.4337232246474 6.2350548308731 5.1933916146682 5.4473645620973 4.7079162929434 4.2419523128547 5.3055010403492 4.6251775376181 5.3013824526635 4.2204956708368 4.2153366617379 5.8573468095961 4.9307216069737 4.2986326783644 5.7162694324475 4.9016186371653 5.6526370336088 4.422979189898 4.9998799730583 4.9861662008092 4.4348579798634 5.4457084560166 5.1134886371552 6.1766632208768 5.3437939160984 5.6037291172093 5.507515422394 5.8660924135086 5.7899303312208 5.8537072995742 5.2094185147015 6.0073121717389 5.1966688609682 4.4813621482847 4.1255502954726 4.536163194214 4.7105087648471 4.6891565717288 4.8022533262134 4.1925454662543 5.5426483275654 5.8796835395956 3.6923798196928 4.4818902981246 5.1045818173456 4.28745574094 5.4622116268012 4.5863724643785 4.5973317245386 3.8590798703921 4.9508804734826 3.8816202072832 3.9459469544867 4.6098120238716 4.2473569116016 4.7562727668105 5.4457653311665 4.8030586325255 3.9105900523358 4.1208664689818 4.413630491309 5.2293327161214 5.8678456912301