# vtk DataFile Version 3.0
d-2__ created by libgimli-v1.1.0
ASCII
DATASET UNSTRUCTURED_GRID
POINTS 570 double
14.5	0	0
14.25	0	0
14.386963504964	-0.201738469428	0
22.399299936458	-0.310870122736	0
22.129824335287	-0.229914148082	0
22.126320781198	-0.518791771445	0
8.472303742627	-0.591754876635	0
8.780507935475	-0.76092407121	0
8.82173151259	-0.349253271447	0
18.663262297679	-0.667179415955	0
18.934786529245	-0.453308328646	0
18.636898038907	-0.29588182328	0
4.016904362632	-0.85330676142	0
4.076038737616	-0.331410355179	0
3.713721571226	-0.470767763626	0
1.89953779852	-0.269343012166	0
1.633800503821	-0.203067612233	0
1.644492760828	-0.441295523531	0
4.368408037607	-0.250833874131	0
4.337474161742	-0.544420985055	0
4.67745607622	-0.378433532554	0
1.406172533733	-0.772361039307	0
1.913288206557	-1.218576310882	0
1.90687689783	-0.651895683444	0
2.5	0	0
2.25	0	0
2.347047126858	-0.185539804102	0
1.374000926997	-0.300418771701	0
1.25	0	0
1.114902662369	-0.201591505098	0
1.067401015567	-0.470108640981	0
5.75	0	0
5.699780065382	-0.324747799653	0
5.924584257371	-0.172748359932	0
0.883560935405	-0.231136840652	0
1	0	0
9	0	0
9.117836368049	-0.253904480787	0
2.625577516194	-0.346770599322	0
17.859079774019	-0.943547525024	0
17.535029634209	-1.703182852412	0
18.338018094476	-1.366069799339	0
19.932263871771	-0.826489183604	0
19.881635677668	-0.346204516721	0
19.622287080959	-0.573770479943	0
1.5	0	0
1.75	0	0
23.25	0	0
23	0	0
23.109690227386	-0.220340974338	0
2.75	0	0
2.142562771237	-0.172460438312	0
2	0	0
23.332392704446	-0.202507275941	0
23.5	0	0
19	0	0
18.75	0	0
18.888143078348	-0.195773419804	0
2.90152418742	-0.185685383897	0
7.612175045312	-0.180627982114	0
7.527150943175	-0.401430797998	0
7.881917737402	-0.30462800112	0
25.630635194756	-0.512020961038	0
25.243766894324	-0.80097755811	0
25.758031115142	-0.952821630144	0
3	0	0
28.84859809239	-0.201276387394	0
29	0	0
28.75	0	0
4	0	0
3.835807353334	-0.199536243303	0
3.106904732949	-0.178783649348	0
29.25	0	0
29.092446172194	-0.305987136665	0
13.5	0	0
13.667851890428	-0.185102765244	0
13.75	0	0
3.75	0	0
14.407363653886	-0.441423674912	0
14.125469935998	-0.279652141152	0
4.25	0	0
5.061980176718	-0.407989246181	0
5.335512032876	-0.269401530321	0
5.113979852892	-0.173834924157	0
11.882046000841	-0.812345557852	0
12.478640631525	-1.146569360669	0
12.244190771573	-0.565936619511	0
3.633270844505	-0.195395238442	0
14	0	0
18.378272976509	-0.514977451159	0
5.5	0	0
9.619519097921	-1.16461851757	0
10.030576753886	-1.587265312651	0
9.961661342999	-1.070235523667	0
5.25	0	0
5	0	0
13.157975569138	-0.830425793913	0
13.83833027638	-1.238601004239	0
13.671302359608	-0.710707966059	0
11.325917093147	-0.8366783502	0
11.612143285947	-0.506264798476	0
6	0	0
7	0	0
6.83842404292	-0.188923754932	0
7.11236984822	-0.391746146843	0
6.631875629497	-0.169178192832	0
6.75	0	0
3.21002197083	-0.595267231049	0
3.445510026908	-0.608065324465	0
3.362318141622	-0.306501255187	0
6.120159502895	-0.164221934939	0
4.538525595924	-0.906226152762	0
13.233775457127	-1.737244787017	0
4.5	0	0
16.138065841822	-0.472802517973	0
16.126746690205	-0.221608117926	0
15.859319180798	-0.326402762318	0
26.080401003391	-0.227842452866	0
26.25	0	0
26	0	0
3.019224421113	-0.401469974918	0
8.234901607028	-0.35771789179	0
8.518285578354	-0.242327591839	0
8.328777073389	-0.153008859619	0
7.25	0	0
7.400656881666	-0.195280611572	0
7.5	0	0
5.385509485898	-0.709154879541	0
5.948697127931	-0.745234910621	0
8.75	0	0
8.5	0	0
8.25	0	0
2.214249105773	-0.404278959534	0
2.896561357202	-0.792481120253	0
9.25	0	0
4.920911116561	-0.192028847294	0
9.651670336652	-0.200847798694	0
9.849824537955	-0.19917205686	0
9.75	0	0
10.095049354068	-0.315754204277	0
10	0	0
3.25	0	0
6.738406513564	-0.710129601907	0
7.121614580011	-0.943026074581	0
11.345829942703	-0.314788260019	0
11.25	0	0
11.104427225455	-0.188863495516	0
6.052412255932	-0.372556729023	0
6.373371846535	-0.274163514827	0
10.25	0	0
10.380281579003	-0.241092027437	0
10.5	0	0
10.75	0	0
10.909079077441	-0.189427130481	0
11	0	0
6.25	0	0
6.5	0	0
4.75	0	0
3.5	0	0
10.672815698565	-0.318467932684	0
10.772487906066	-0.787092734739	0
11.020900486567	-0.439266778492	0
8	0	0
7.75	0	0
11.5	0	0
11.619450354736	-0.231443672836	0
11.75	0	0
8.139317726831	-0.163309591658	0
12.25	0	0
12.158949464947	-0.235415698299	0
12.412455385193	-0.275030800337	0
12.929165084344	-0.221336108042	0
12.686337592177	-0.258437422252	0
12.900449535554	-0.462768612232	0
12.5	0	0
9.405755833308	-0.325979504745	0
9.111697192308	-0.594170467817	0
9.457257345083	-0.753685223931	0
18.101369157139	-0.618560521812	0
18.336839281097	-0.861122419318	0
10.385948631267	-0.570640149046	0
9.5	0	0
13.411260455969	-0.342646276848	0
12.643108055516	-0.590179775368	0
13.137744715761	-0.195204172124	0
13	0	0
21.25	0	0
21.358341816502	-0.326561417551	0
21.5	0	0
13.816492716597	-0.40394453634	0
20.25	0	0
20.423452336785	-0.313445603959	0
20.5	0	0
17.789350393153	-0.390447709085	0
17.987794057246	-0.401472255242	0
17.881276545163	-0.206424156589	0
19.564465692234	-0.270867872644	0
19.290725118801	-0.49926248604	0
16.392319441256	-0.29915360323	0
19.443730892406	-0.923508713428	0
20.457987075478	-0.803203365193	0
20.167450719332	-0.505159975143	0
0.103762538371	-0.253013629949	0
0.267057015134	-0.483604909932	0
0.374713194419	-0.2320817565	0
13.25	0	0
17.415572543912	-0.230682214253	0
17.5	0	0
17.25	0	0
18.108153655084	-0.208141099276	0
18.25	0	0
18	0	0
15.75	0	0
15.544586046819	-0.246453491997	0
15.122708481244	-0.193620038745	0
15.25	0	0
15	0	0
19.75	0	0
24.149237782749	-0.319013340846	0
23.842766599446	-0.577371105011	0
24.183995039967	-0.73159476451	0
13.871646321742	-0.17394291424	0
23.862588150518	-0.245417872715	0
16.84024277193	-0.203626765466	0
16.704049384397	-0.435508179396	0
17.112673188265	-0.38804641709	0
24.75	0	0
24.832880292394	-0.290571430318	0
25	0	0
16.40158555625	-0.755912194683	0
16.850299990829	-0.757941865332	0
17.75	0	0
23.567455674596	-0.325197491724	0
16.25	0	0
16	0	0
22.645812614293	-0.197864648876	0
22.75	0	0
22.5	0	0
16.75	0	0
17	0	0
24	0	0
26.914424714815	-0.337869958787	0
26.621963281699	-0.624626679172	0
26.977877660759	-0.778408201088	0
26.622424322919	-0.264588309935	0
19.34462271879	-0.199329831305	0
19.25	0	0
19.118057075065	-0.225686869553	0
19.5	0	0
26.75	0	0
27	0	0
27.5	0	0
27.604422363523	-0.298869962794	0
27.75	0	0
17.650384190064	-0.227839036584	0
18.343198956448	-0.236734208617	0
18.5	0	0
24.25	0	0
20.143897114391	-0.233773711865	0
25.5	0	0
25.25	0	0
25.344389320279	-0.31693710653	0
21.059546193318	-0.24845941382	0
20	0	0
25.842927934822	-0.248287716678	0
25.75	0	0
25.613904645132	-0.216025146631	0
21	0	0
11.763551406169	-1.481607093928	0
30.981104050195	-0.5526690913	0
30.873880294509	-0.217692518774	0
30.706626759758	-0.34945139905	0
20.75	0	0
20.85240828135	-0.178025243856	0
23.75	0	0
20.66289882074	-0.189089155251	0
30.204950808504	-0.791758966623	0
30.715535843381	-1.149995259266	0
30.543724897762	-0.572259098027	0
30	0	0
30.180216671806	-0.343473673313	0
30.25	0	0
23.229584388362	-0.458653998547	0
29.5	0	0
29.623391954444	-0.322069028408	0
29.75	0	0
21.618913855927	-0.233585823579	0
21.75	0	0
29.348490380579	-0.521100538161	0
29.36294710412	-0.230601226356	0
22	0	0
22.25	0	0
28.25	0	0
28	0	0
28.129259193923	-0.314252106503	0
28.44374413871	-0.484576386004	0
28.100199615755	-0.812038297775	0
28.649230646972	-0.871769248311	0
28.618403654115	-0.227691192115	0
28.5	0	0
28.387848605749	-0.205892081491	0
29.054768525933	-0.708603081552	0
29.344906532636	-0.846887322836	0
26.327430876245	-0.35930637997	0
10.349120516034	-1.04150119828	0
10.894920134778	-1.514321070539	0
24.59640839418	-0.191760546865	0
12.75	0	0
24.5	0	0
13.102881121377	-0.411296235356	0
25.099388239946	-0.214879887129	0
25.97986022697	-0.52841375324	0
24.398993403151	-0.196312410538	0
17.860840746535	-0.577367743328	0
17.566481510048	-0.529340016102	0
26.5	0	0
16.637148248735	-0.188015807345	0
18.183918302467	-0.396443618316	0
27.159348252167	-0.205297590358	0
27.357530053515	-0.198815038154	0
27.25	0	0
15.060354649709	-1.112587998155	0
15.51532665618	-1.043792149387	0
15.178150912169	-0.713100616689	0
10.051363365948	-0.719159376333	0
14.661248691948	-0.27865166374	0
14.75	0	0
27.868836823455	-0.217301839861	0
31	0	0
30.75	0	0
-0.020273477909	-1.415389842481	0
1.054972770973	-1.487485199502	0
0.512583677021	-1.0438154777	0
0.75	0	0
2.361419414365	-0.794513604096	0
29.890297721653	-0.2433406165	0
30.473599299501	-0.238575611274	0
30.5	0	0
30.660802173874	-0.161931182737	0
28.783812899585	-0.467926883932	0
4.937022539393	-0.72440615077	0
6.696914540879	-0.380672503721	0
7.434272221796	-0.695675918868	0
15.339606453815	-0.166204802571	0
15.281953315711	-0.388999642276	0
11.893544445085	-0.335972898148	0
12	0	0
9.753796445798	-0.478866225926	0
7.720012958977	-0.638314519759	0
21.871398197179	-0.313006985103	0
21.615176662754	-0.521922347305	0
21.856785525528	-0.665128848631	0
20.792152536902	-0.448319093295	0
21.109577821412	-0.527879642114	0
21.360297691811	-0.734200004244	0
15.547854961707	-0.580173571081	0
24.496861814148	-0.467031445896	0
25.067351422649	-0.463427753535	0
24.81263825963	-0.684738154192	0
22.865620821195	-0.218348593093	0
23.443705587002	-0.773171720633	0
27.277617447467	-0.489224417775	0
27.863714790534	-0.471681393437	0
26.239117668995	-0.863279739365	0
29.896797054636	-0.547765129844	0
29.612773839625	-0.699757135752	0
29.867172666547	-0.87444432816	0
29.610354212963	-1.521444655905	0
29.59548165142	-1.071765512911	0
29.115129171034	-1.220660174798	0
31.345359428525	-0.458952144926	0
31.144859415042	-0.241304201582	0
15.919565295974	-0.746550096707	0
16.063006820294	-1.289595303187	0
16.5	0	0
14.900855313538	-0.178071167744	0
14.161016743654	-0.72559708689	0
19.011498044983	-0.834202892304	0
16.760433281999	-1.263698818643	0
17.280361389946	-0.931704507314	0
-0.627742252535	-0.296285438777	0
-1	0	0
-1	-0.5	0
0.625738545692	-0.228405936136	0
0.5	0	0
3.313957665883	-0.865581185485	0
3.619156095452	-0.800599314657	0
[...]
CELL_DATA 986
SCALARS 160.00_0.28 double 1
LOOKUP_TABLE default
9.4687447316052 8.7514124370745 8.3686843265302 7.2658285128148 6.5016611023676 9.1796855140663 8.4849422450005 6.3475622827945 9.3740623411063 8.0593118474487 7.9082290419723 8.9478985380383 8.1605781303043 9.6548116498642 9.7374827480161 7.8620554762679 4.8701701489708 8.1736440945958 10.073813332392 10.435746099872 10.204717876206 9.4923298964389 9.8312735845953 9.3936039250977 9.3217317683082 9.5343904992623 9.1382028916902 6.5174970404272 9.3001772551571 9.0099667976627 7.8969738831204 9.2678599417386 9.0501771642532 9.8931336400945 7.2257384627856 9.7307797122902 10.081049265735 8.8892943458016 5.9198910810039 7.1821401599599 10.204983583442 6.8897182553905 9.713079679184 5.1327182787918 9.2864164109796 8.4666393491862 6.8638598726504 7.1524751693199 8.6897430297814 8.3936943380267 8.2801313340861 6.7137113202466 6.5175489925037 9.042947488612 7.151424022298 9.2370430706431 5.1529099627231 11.31379213539 8.5967471841448 6.614922566148 9.1725522105015 8.7099819124195 10.192696132849 10.149532899337 11.757394687358 11.329857739133 7.8256515823427 7.1952832093136 10.137961397783 8.2646369585439 10.710117143816 9.6890552942858 9.8907638737624 10.133536974768 9.2836410048785 7.5564020204201 9.6992923291066 9.346406363347 11.083344470447 9.9012758751453 9.3486967942973 6.4166186949988 9.6324436895584 8.4471680979623 10.686443127472 11.340941037233 8.5620048569458 9.7772799129058 12.091182085381 11.480259093756 9.1443348398863 9.0644625122454 8.3026123137179 9.2501241875507 8.9318241180669 10.290222833389 10.630577841218 10.313202743955 9.3725948901949 9.3919573919223 10.967345015219 9.37336765015 8.0551867405806 12.525595758741 7.0986700695999 6.3820027976623 9.31485005785 7.314211783566 8.491756771084 8.2458913419612 7.6575388469441 9.1521582209733 8.6286682868286 8.4202223993947 9.1622075690282 11.640485245994 8.2230581761361 9.8028072938638 8.8659673933079 9.0001910291509 7.4721986277745 10.282324489716 8.4130487650881 7.2666873085146 7.9959257209743 9.5606189091922 8.0925037289774 7.1708198542456 9.266154009642 8.8207305962382 7.5793487689602 9.71634808737 9.6230244568008 9.8296300810547 6.9715613375357 9.2041357564963 7.8220577358641 9.9591955209588 9.5246647014111 8.182883677076 9.36987415029 7.8414636680377 8.5676163998867 9.1308438018409 11.220814457983 10.43883798039 8.5315719827469 6.5330223983341 8.2758989541421 7.3045222868606 10.300564001082 10.964199664797 7.9168753574115 9.9036740432902 8.2765432982064 9.9444389694682 9.6249582244176 7.6948663773334 7.8694408256651 7.8544448657599 11.564995136761 9.1109548987198 8.2838603727513 12.351325238714 9.5441063078209 8.408775808427 5.7725367914488 8.0585467417694 10.647397276745 8.8414314825276 10.720829670098 9.9573358489049 6.225806642616 7.6096583364455 9.0100182020313 8.6243114178324 9.5320655960481 9.055991105876 7.8870217174637 8.4542327461027 9.8802647910382 8.5970435906739 9.1678833074029 6.6425190273527 6.9838932311061 10.220174073119 8.9618219779172 9.7515257243103 8.0138738165246 6.6244952336082 7.4377658314836 6.0486412249184 8.6775918506252 6.0764688057072 8.9713758870894 9.0943996068565 6.0442323884093 9.1556637219903 8.8782457179186 8.8424684603954 9.5173643875638 8.4561695249342 6.3259953086393 8.5036690364311 9.1783560565305 7.0819811121912 8.7779234123799 8.8428987714799 8.7608287336649 9.3199406854033 8.7472864274177 10.266455614427 8.1182449575392 7.3570631173816 8.0219371805815 8.1086860904875 5.6829719833108 8.1129306506162 5.9811156007274 8.2802176065077 8.9237096589478 9.2809116646117 9.4705310118811 10.560081250453 8.2287571962477 9.3798688348799 8.9584171171625 8.4461449597841 8.4120052934883 9.931108738046 9.217640862923 5.4388493302299 8.5825693656337 8.632879632176 8.44219392314 9.2168941259848 8.9534653144773 6.9969203279232 8.357222549659 8.4213381181888 7.6714473537831 7.3306241514464 9.7712322793522 8.8240879721102 8.5287564811681 9.9377007424275 7.2740020051361 8.7400763074143 8.4763099469425 7.9702659703773 7.1316510868922 7.8697845993514 6.8749174569051 8.5938672989563 9.3316851008326 7.0888074058256 8.9623987999273 9.0715622196749 9.9294476051709 7.461102390206 8.8144988680973 8.7211366928948 10.210928485621 9.131503193394 7.5278200151707 10.530483235872 7.9085099192139 9.2325230843544 6.6686395680256 7.1744285732935 8.8954628078062 9.70695522892 8.8076584093629 8.7860275154903 8.9613080968175 9.7487921092789 7.2269480892994 8.2747144509494 9.3232950299367 8.0787852806848 8.0505989072384 9.177626345274 10.405722486867 10.286525509662 6.8288217151331 10.556686274473 8.955439569302 10.366572199926 11.696149628025 9.4826946958524 8.3047535350477 7.9834728508096 7.5644293625564 9.8703589966471 8.4439156451052 9.627517962469 8.3265886426183 9.3146811332239 10.697973715011 9.1521145257402 7.2209093384299 9.6301525782378 11.22097717989 9.9713498802237 6.5860097770495 7.6343131989196 8.5061550259126 9.394683556242 8.3363831545521 9.1033346568607 8.8279290087633 9.161776405169 8.0677553614374 8.2662671441529 8.4835203101203 7.8995008312062 8.9705502644106 7.3167300922026 7.6565015214464 9.0063098403914 7.7980930723713 8.4740805898628 8.0949954447392 7.7643924446883 8.0715802648794 7.9203900178583 10.149767356432 6.9250538670243 6.3347309802325 5.0483176619629 7.8918283649149 6.9748989451457 8.3197245142169 8.2591903884232 7.5535665483563 8.4338990426435 8.3100664163753 8.7338646369505 7.5768393736201 9.5411473950712 5.5422985476927 5.9911247054096 11.19794169445 9.0073858498398 9.8109596112055 9.2994140582403 9.7664289111014 10.763519528358 8.7461889538485 7.2443232997725 8.6117687739689 6.7131695666598 8.5325207572877 6.103869267609 6.9267828159901 6.5575214210193 6.3239751530624 7.5937367512781 6.6054993006701 8.0942686561731 7.5086163873035 5.6625943603767 7.492155636894 8.5206029238922 9.6013261111362 6.9715375027904 6.2526046036785 5.8676831413681 7.375904916977 9.5961355028572 9.5360306877443 7.4883787273441 7.1905821426533 6.4710535255983 7.7000631863539 8.7334833374358 7.4826810391159 9.6585281493865 9.7418834179653 6.4428751011275 5.6641830342368 7.1607991762346 8.9453908653427 8.2447359128559 10.643380675188 11.478986003906 7.8853471796032 9.7874392938528 7.0108065315685 10.770779835344 8.4292922608551 7.6965181704515 6.2903328962923 8.8562896216917 7.5894975133924 9.2145201430703 7.2361338072337 8.7136460066842 7.2285705291024 8.5227931378943 9.6560490828633 9.6378022402821 8.7079857934618 7.8575286559344 6.4180590290473 10.450090836692 6.2595786821712 8.9167333598658 10.021895767596 7.308610045541 10.87429706931 8.5241003707776 7.3879399700477 7.6092132266842 8.7503547666263 7.9308578359563 7.0570224548991 6.9680685783465 6.0160815747724 7.3498310000905 6.2133178252583 9.0067577942669 8.5262629951177 6.9690753506261 7.1448500349861 7.9614754529039 6.6654801075612 6.6308696893395 7.403134543024 6.8640877727899 7.2073300129186 9.7373085448007 8.890367271163 8.2213058706902 7.8429737896897 8.6601713242045 5.522582903602 7.606341536507 5.2358715204517 7.3844337660332 5.6486155351344 7.4161207357021 8.5940219919221 8.2447934650503 5.8965253448339 8.4059544766736 4.8480767598441 7.710035048948 6.7477472003365 7.2096345116363 9.6683805783288 9.8263944947613 9.8316660894993 7.1673000939296 5.7658061935108 4.5575381538226 7.2628036840366 9.2446484492979 7.8793631674341 7.9229156557345 7.5544479822445 8.1388369330835 8.0619744261962 7.5572518734157 6.9048323601607 5.1020375448567 6.219517674001 6.9891671069077 5.7421666807068 5.2614466095727 5.90523175294 8.9214427300638 6.8399510066156 5.1719204860848 4.6151563596873 9.5051739029146 7.6749340757388 7.3102983510729 6.9450282151707 5.8906129694184 6.8459941040763 5.738627869347 5.8185585339314 9.5590849123104 8.0772599298037 6.8793685770805 7.4864506408614 8.9512043588089 7.385602719845 7.5219272091349 5.0416464771462 8.4993971281233 9.7627781895241 10.125146070632 6.8922064989936 6.0114659104795 5.0608061853709 4.1704400920295 6.7603145124497 8.4821952246303 6.5912391765346 6.7811016794164 5.5698698384896 6.5948841638986 7.6835978303917 9.8836356357235 5.6227437690416 8.638247997313 9.7162958314744 4.4045860869206 8.0370141376134 12.190840803364 8.9635131075228 5.7242792043725 7.7890170268933 7.8018804726741 6.5955697961779 6.001471536168 5.3981607941058 8.9751791459919 8.8479436568016 5.3846653694485 7.4299641789706 7.4953029429948 6.1398005456865 5.676825412652 5.0933817998184 8.900644453576 8.0599086384883 7.797429389075 6.7400974213692 7.8103121601631 7.1171262614071 8.0625461982468 6.7187828913078 7.6772874800799 8.5298783182556 8.1492216874245 5.2406825493751 3.9076232363624 7.5871013679717 6.106342444612 7.5181175173401 8.6948626337845 5.610711893472 8.5601792096068 4.1431850894611 6.1633612420065 3.8167487173188 4.5954527323836 7.7423427317812 5.7413332499363 7.03258892193 5.7237290133361 7.8144908609935 7.444240863818 6.2170315346047 7.5264576156331 5.4363497121297 6.2298123615301 6.4289912131347 6.0291364980508 7.7463394168691 5.8875113960537 6.926759887695 8.8557191809109 5.5814696734038 4.9399760387446 7.125026756288 6.7655359593054 9.8991519346506 6.0127303362662 7.7016028523044 7.0776370824963 9.063165068556 8.9077019954304 5.8597232973557 4.213229264667 7.5612566499055 6.745474636228 6.5993806244482 6.7094656713678 9.7559139400407 7.9784415361209 5.3286740243814 7.4753077098626 8.8666507892857 7.6184276417396 7.9385377114555 7.1953561876831 7.3482417883694 6.6580655695317 4.2972877446097 6.7179296975476 4.5173527186667 7.7553846234519 7.1258678263011 7.0536261874214 5.8344918135606 6.6374874597956 7.3079101741434 7.0346007326092 7.0086502576023 5.9897092863139 4.8935786322639 4.0906767961286 5.0993926623635 6.7742690582596 9.0892571415884 7.051341669358 6.3430011191474 6.6772349694339 5.5253778755742 10.292675604492 5.381785861783 9.4953002797856 7.6607131802104 4.0009542918892 8.2358510011986 7.8269843514786 6.8261389604434 7.7826941682717 6.8732405416263 5.9177272129595 5.9349130537262 5.571041855483 6.8735617288773 6.8822695742593 4.1673843321531 5.0704344481595 4.426315217788 5.611436416393 4.9396403571821 8.5671090725677 5.7523401408329 7.8588030923593 4.9454159638987 5.0640416486167 5.3104564963539 7.3239135641668 4.5710511677667 4.5478055263788 6.6054849515165 5.2432453459418 3.9447105305858 5.7475318200948 8.3276502788719 8.3223873254039 6.6709131995456 4.7285290757275 5.1741922334666 4.7118801673532 7.3808538760586 6.5482918626545 7.2396395719047 6.6325571916651 8.3391118538635 7.9037993426914 5.5430955501279 7.9756056569824 5.7194987348453 7.8163780445249 5.6939122981465 7.4030807786079 8.1230354459328 6.5059643362267 7.4504950761815 7.1173097075108 7.4068465964202 7.8405214771537 8.0193600516531 6.8168402361447 7.5313980174678 4.3657886543185 5.638173369981 7.7418288041125 4.6949574112077 8.6944328701544 6.6416282239895 6.1244365408699 6.1203547286649 6.5209746397833 5.49347123215 5.041904228889 4.9495781591342 4.9906653359826 5.0642587507567 9.2122869062484 8.387741309465 9.2275724345905 8.7178912641716 4.8539718733096 3.7835099211897 5.1896780599736 5.6044469876394 6.0812200714741 5.5105675801436 5.7300132649388 5.1687786762143 5.9680612875323 6.2188890387985 5.9997750668012 5.9167095866389 6.0361743081505 6.401287099385 5.6397256690448 5.2214733994092 7.2779307585077 7.1537057628095 4.7862515189238 3.626295563558 3.5063931969559 4.4117368897303 4.1967687627854 6.7711604310624 5.8969680617178 6.9570582106787 6.3664556377415 10.510961703646 10.385643174353 4.1706840292714 4.6103862836236 7.1962584221691 5.5175526542183 4.0566637320608 4.1226256482128 5.2337478441117 6.7490935941547 8.6388515467094 6.4096288046068 7.2800990594746 5.3783854143774 5.3401501868744 8.833809537901 4.9796606607878 6.4729931384841 9.2324336165577 5.1292944814267 4.3983162330598 7.2307410094329 7.5670768227768 5.1980761488561 4.6432526461148 4.5975325591531 6.2030585068844 3.9941256288161 5.10068016892 3.8339269677572 3.7169620974308 4.2241734868411 8.0254611499031 4.8905509336353 5.5717163239035 4.8582818621864 5.2954747452395 4.6030243150348 5.6444833012351 7.8168107635011 3.861387169437 6.2090655241006 3.5539844213829 4.1082421020748 5.2048324582001 4.50791265939 4.0426752606476 4.0798306867034 4.5048098869769 4.3672706702845 4.8968713009178 4.0097362509414 7.1524163220219 5.1260274185717 3.9022656489464 4.3046345538563 4.8888562657416 4.8776799289191 6.7292905204868 6.7944297433854 6.8075497223061 6.947165409207 6.200502820904 6.5837963167417 5.8166292833776 6.0271649741816 6.6571948078211 6.4330186221847 5.3527942220408 5.861226636592 5.948601599745 6.6521533498956 6.1551804715782 3.6628359288104 4.7610041030684 5.5520480833901 4.643245236037 4.4821766842796 4.169967974871 4.2895773817585 3.9640245137372 4.6143524991039 3.9961159412882 4.5442616609049 4.9655102949298 9.9969707941158 4.5540034367815 5.3814085492813 5.1414302003753 8.1605918373397 7.3194550367357 3.9175665743878 3.8425168544594 3.6159652875165 4.5857760551534 5.0294758977493 10.728445469998 3.940399797093 4.3267386559577 4.5455606827057 3.5099563567851 4.6242893042549 5.5225686936493 4.9079552472397 4.8179579445169 4.2356744743993 4.8340031992601 4.4220892212879 3.9304944656645 4.8526246559746 3.6803045799198 3.9438603237016 4.6708462394868 4.3610440874772 3.5324247474494 3.9164073900187 3.6144270014044 3.7873081557406 3.7180275583947 3.639416690274 3.7446973786773 4.4660743253377 4.3695140517254 5.4367631983839 5.5535673473054 3.9029803958822 3.6083450095246 3.5490107157131 4.2463697616362 3.6173514808355 3.6440266748571 3.6673087468146 3.6706435425284 3.7596489775606 4.0842954374469 3.7627524021492 4.3649241689552 3.4533247162669 3.5352009585525 4.2482695025694 4.1189163025545 3.5218880617141 3.5039358222058 3.6750945673881 3.6918384151912 3.5709697416392 3.6458400093354 3.6047203370085 3.7292903878863 3.7558220831296 3.5897099117481 4.0324654575799 3.6704561563468 3.7133317101362 3.5521055565602 4.2449775336312 3.4882935730457 3.5859242618189 3.5203495206539 3.4722383909741 3.490280823138 3.5767757368671 3.5911131657345 3.7090488524476 3.6693387558033 4.3789557153617 3.5419102638032 3.9989271384404 3.4358305339743 3.511566054203 3.7830389797055 4.1332678228034 3.6058353683737 3.5466126011455 3.4359724396308 4.5060775580259 3.8920917367953 4.1688196329345 3.9741708581241 3.5638580510099 3.5628436846216 3.5260221265399 3.490568959701 3.9820476656027 3.6890465773576 3.6808865897807 3.720446843846 4.0886090973825 3.8171831361536 4.1399755615444 3.4532381241606 3.6180515851967 4.4327937646654 4.2750022255152 3.8368480291944 3.6269206759674 4.0004311583916 3.4397942748745 3.8127890246875 3.6679806028337 4.1930224394505 3.6495444083659 3.7790588868134 4.3579972811878 3.689982798448 4.3331105025551 3.8683237500981 3.807888979714 4.1305691656953 4.2421059248296 4.1980801131345 3.7907425924409 4.0552433081731 3.600692837466 3.5735511809541 3.5656536056131 3.5978175675924 3.7466288614626 4.3290558965358 4.1530305439609 4.0676835924099 3.8349857222812 4.0594191266362 4.0091965033407 4.28768649205 4.4825735537788 4.3155166238124 3.7549017605657 3.68704926165 3.6770121326874 3.8576583004373 4.1366315218762 3.544547751927 3.696886599185 3.9159669425083 3.710245701932 3.8854246336076 3.7377079165436 4.0747426193329 4.1212393037358 4.1999333243235 4.0354295026179 4.3205059991755 4.4249856108329 4.2958577294428 4.2693222643859 4.200337630088 4.3804454204322 4.4185612354977 4.3786412310844 4.3183765322326 3.9171401145583 3.6907373496938 4.3584750951302 4.0044175153143 3.8356556069302 4.0038765446636 4.1278797658851 4.3170640845243 4.0094054483156 4.1496757419272 4.3891554746752 4.3164552995232 4.3284725305894 4.3726981962585 4.1306208019761 4.3826414426055 4.344676498964 
SCALARS 20.00_0.14 double 1
LOOKUP_TABLE default