# vtk DataFile Version 3.0
d-2__ created by libgimli-v1.0.12
ASCII
DATASET UNSTRUCTURED_GRID
POINTS 1303 double
5.625	0	0
5.511811217919	-0.146388704457	0
5.676386535709	-0.13519637448	0
0.25	0	0
0.175228502521	-0.179050409113	0
0.326009290428	-0.144330725415	0
0.375	0	0
0.990207725992	-0.114957291708	0
0.841075314552	-0.137634199948	0
0.926498288371	-0.349340723189	0
-0.001071200562	-0.386156929004	0
-0.003317641763	-0.130454088023	0
-0.192720422374	-0.216308252768	0
1.25	0	0
1.175215748534	-0.200562384647	0
1.341115762259	-0.128605193971	0
1.375	0	0
2.25	0	0
2.168494514827	-0.19848886597	0
2.338304607341	-0.128945294536	0
2.375	0	0
1.911268305082	-0.334701951691	0
1.986191885908	-0.110806668109	0
1.838390258011	-0.128853462534	0
1.75	0	0
1.670105949089	-0.197137117999	0
2.986685504441	-0.10889534818	0
2.838723720416	-0.127406828384	0
2.912854264006	-0.329775839393	0
0.75	0	0
0.664572693147	-0.222613872306	0
3.25	0	0
3.168798596028	-0.193682232199	0
3.337828500197	-0.125181208794	0
2.875	0	0
2.75	0	0
4.25	0	0
4.161099470995	-0.193412132741	0
4.332718836325	-0.127723897736	0
3.83511440706	-0.12403687807	0
3.875	0	0
3.75	0	0
3.901908238995	-0.321557035295	0
3.983050435256	-0.106770030737	0
3.665527023987	-0.190866765849	0
5.25	0	0
5.164693411436	-0.21656556845	0
5.338419985376	-0.147288917438	0
4.834321952324	-0.135810575609	0
4.875	0	0
4.75	0	0
6.25	0	0
6.178399669611	-0.137425451145	0
6.356205370496	-0.193853696818	0
5.817814980918	-0.161175429964	0
5.875	0	0
5.75	0	0
6.611939839541	-0.314381537706	0
6.522886280605	-0.104721203126	0
6.75	0	0
6.669178832877	-0.119404962711	0
6.836073690852	-0.177498311423	0
5.39059629209	-0.37339102075	0
4.660917359886	-0.204007052252	0
4.902096977384	-0.356327271651	0
14.897042426984	-0.319128540459	0
14.98121339776	-0.105010975498	0
14.832720105416	-0.123004000492	0
2.669265824618	-0.196872625129	0
7.656019919505	-0.144451020927	0
7.75	0	0
7.625	0	0
6.625	0	0
8.75	0	0
8.672937461928	-0.164309120831	0
8.834289374889	-0.109279841483	0
8.206809119751	-0.294811800109	0
8.187056112549	-0.110869448227	0
8.024316200302	-0.129362764133	0
7.157390904024	-0.111206354394	0
7.25	0	0
7.125	0	0
8.25	0	0
8.125	0	0
9.75	0	0
9.651145885459	-0.185384966231	0
9.827054067621	-0.122428024454	0
9.381816956327	-0.305807769915	0
9.476753337472	-0.101567493772	0
9.327490061855	-0.116748040282	0
10.75	0	0
10.655660803951	-0.196164841752	0
10.830485405183	-0.127989131147	0
10.386748323888	-0.329675548046	0
10.478464938155	-0.108955040137	0
10.328560245085	-0.126395562242	0
9.25	0	0
9.375	0	0
10.25	0	0
10.15270392044	-0.192469144253	0
8.328856990144	-0.128933011689	0
8.375	0	0
9.153857570119	-0.175508527296	0
11.75	0	0
11.660624577581	-0.201812344528	0
11.833823570609	-0.131890823957	0
11.395399221028	-0.337817920558	0
11.481219500696	-0.111845889235	0
11.331881500183	-0.129806070652	0
12.75	0	0
12.669299873111	-0.199190799603	0
12.839534650452	-0.128328673855	0
12.40897914742	-0.340185307353	0
12.485654611126	-0.112072117633	0
12.336727606385	-0.131188239877	0
11.875	0	0
12.25	0	0
12.164627546098	-0.202605127067	0
13.75	0	0
13.669268468008	-0.186168180444	0
13.837322273199	-0.120178339978	0
13.416957459915	-0.319650485848	0
13.487510959619	-0.105281058988	0
13.34010202956	-0.123833443479	0
14.75	0	0
14.66080663422	-0.189613659871	0
14.399926333663	-0.319306441484	0
14.4823067449	-0.105599641009	0
14.334114343934	-0.12250571155	0
14.875	0	0
15.25	0	0
15.158227025815	-0.185762723401	0
15.330441202311	-0.11956675178	0
13.875	0	0
14.25	0	0
14.163960939829	-0.186365139356	0
12.875	0	0
13.25	0	0
13.171786689458	-0.193064330135	0
10.875	0	0
11.25	0	0
11.158129238503	-0.198418008741	0
7.31587636932	-0.171642077952	0
15.3902841013	-0.308450173235	0
15.478958243586	-0.102394874489	0
-0.125	0	0
0.125	0	0
0	0	0
-1	0	0
-0.706889652808	-0.331752981492	0
-0.5	0	0
1.125	0	0
1	0	0
1.625	0	0
2.125	0	0
2	0	0
1.5	0	0
1.488007132967	-0.109900770852	0
0.5	0	0
0.474245721096	-0.130043839003	0
0.625	0	0
3.125	0	0
3	0	0
3.625	0	0
4.125	0	0
4	0	0
3.5	0	0
3.485533411273	-0.107014956798	0
5.67736414417	-0.368119689468	0
5.125	0	0
5	0	0
4.98353533542	-0.118243061674	0
6.125	0	0
6	0	0
6.009467825362	-0.139471566496	0
6.5	0	0
4.625	0	0
5.5	0	0
4.5	0	0
4.481603306259	-0.111052305129	0
2.5	0	0
2.486482293556	-0.110456056597	0
2.625	0	0
7.828740664136	-0.157959666613	0
7.5	0	0
7.497789303332	-0.098817221798	0
8.625	0	0
8.5	0	0
8.493725508365	-0.094448160765	0
8	0	0
10.625	0	0
9.625	0	0
9.5	0	0
9.125	0	0
10.5	0	0
10	0	0
9.976983002093	-0.106037154081	0
10.125	0	0
9	0	0
8.980258705317	-0.095443922293	0
12.625	0	0
11.625	0	0
11.5	0	0
13.625	0	0
12.5	0	0
12	0	0
11.983083448534	-0.113269018621	0
12.125	0	0
15.125	0	0
13.5	0	0
13.125	0	0
14.625	0	0
14.5	0	0
15	0	0
11.125	0	0
14	0	0
13.984735949845	-0.103165953766	0
14.125	0	0
13	0	0
12.987740386932	-0.109238757727	0
11	0	0
10.980033547654	-0.110118532971	0
7	0	0
7.012790729926	-0.096165366155	0
15.625	0	0
15.653391866104	-0.184257106926	0
15.75	0	0
16.25	0	0
16.151956269841	-0.190746813766	0
16.328162175541	-0.125534698515	0
15.827345422636	-0.12109528269	0
15.881623705918	-0.315197408181	0
15.9768075603	-0.104841845177	0
17.25	0	0
17.155473725888	-0.187015736188	0
17.328334720487	-0.12053442359	0
17.375	0	0
16.97978281674	-0.105790715925	0
16.830585534618	-0.124270763258	0
16.892220832712	-0.321708894118	0
16.75	0	0
16.655725821363	-0.19281499559	0
18.25	0	0
18.144056513649	-0.199584109463	0
18.322695877645	-0.133173012767	0
18.375	0	0
19.25	0	0
19.156955168382	-0.212194778097	0
19.332395147696	-0.137501625504	0
19.375	0	0
18.978107771567	-0.118463258117	0
18.827251646435	-0.137822523984	0
18.884674261801	-0.359498065923	0
18.75	0	0
18.648603260315	-0.210400354993	0
17.973004229039	-0.108213471414	0
17.823362138939	-0.124125311933	0
17.87020700187	-0.324156104502	0
17.75	0	0
17.64837652944	-0.187413016584	0
20.25	0	0
20.167288289523	-0.206556633625	0
20.33799343326	-0.133667464393	0
20.375	0	0
21.25	0	0
21.172020853715	-0.201327641466	0
21.340729826518	-0.130206344264	0
20.875	0	0
20.75	0	0
20.839555732676	-0.132066213667	0
20.987710400762	-0.112937783384	0
20.915843633601	-0.342386775443	0
20.669904108595	-0.203936882105	0
22.25	0	0
22.168893714495	-0.194483818359	0
22.337089427477	-0.126591453251	0
21.875	0	0
21.75	0	0
21.840184239699	-0.127666317168	0
23.25	0	0
23.162361450448	-0.215073727418	0
23.335945395372	-0.148199257458	0
22.875	0	0
22.75	0	0
22.83504078106	-0.133126573368	0
27.412614995451	-0.337768305098	0
27.406417478875	-0.760610856776	0
27.663031754041	-0.476449210851	0
23.674319496044	-0.139602731619	0
23.75	0	0
23.625	0	0
22.902876337082	-0.348446434986	0
22.664415839639	-0.19979598046	0
21.987454968006	-0.109075483352	0
21.916658702332	-0.330379709848	0
21.67241042914	-0.19774510361	0
19.984830323221	-0.115851903278	0
19.835879034474	-0.135573032779	0
19.906686139011	-0.351521653308	0
19.75	0	0
19.663378765328	-0.209646647928	0
24.75	0	0
24.672305039303	-0.121865624882	0
24.84054616259	-0.178479133746	0
24.25	0	0
24.125	0	0
24.179559510218	-0.145425217914	0
25.656694723316	-0.141492417978	0
25.75	0	0
25.625	0	0
25.25	0	0
25.125	0	0
25.159224348757	-0.109007087058	0
22.647257188685	-0.476376729768	0
22.872248033711	-0.780455516934	0
25.317652966423	-0.167196322239	0
31.908525182248	-0.237434634112	0
32.248547795208	-0.367887731521	0
32.025	0	0
26.398062594932	-0.327144710524	0
26.335089901602	-0.124890632532	0
26.169730315141	-0.188549564961	0
26.75	0	0
26.662500836065	-0.197477656933	0
26.835401004001	-0.129534360312	0
26.375	0	0
26.25	0	0
27.486869476066	-0.111474770432	0
27.338367230812	-0.130187170762	0
23.816158307302	-0.168335740772	0
23.875	0	0
24.625	0	0
27.75	0	0
27.67023663024	-0.198727549038	0
27.839431305592	-0.128541986375	0
27.375	0	0
27.25	0	0
28.75	0	0
28.666013303123	-0.192953151514	0
28.835335299513	-0.125393524551	0
28.875	0	0
28.41074998604	-0.32692743598	0
28.485854239984	-0.108071323096	0
28.338261561589	-0.126341817439	0
28.25	0	0
28.169650699531	-0.195402875109	0
29.75	0	0
29.656991685033	-0.201213204108	0
29.830700495316	-0.13323291855	0
29.875	0	0
30.75	0	0
30.665605116896	-0.213760177502	0
30.837855425721	-0.139272404211	0
30.875	0	0
30.987248292653	-0.119871959545	0
30.911614165903	-0.362389547989	0
31.25	0	0
31.174363802618	-0.217041176186	0
31.346460135447	-0.143418487957	0
30.400599561582	-0.360265197586	0
30.483280501431	-0.118794220148	0
30.3336351656	-0.137924489201	0
30.25	0	0
30.159375273254	-0.21004086356	0
29.392934647931	-0.331414044449	0
29.48031118177	-0.110263057575	0
29.331777210358	-0.127344913482	0
29.25	0	0
29.160548153072	-0.194064979946	0
27.167334579456	-0.200440763045	0
24.359650796728	-0.20304719459	0
-0.25	0	0
-0.404335947278	-0.221464959739	0
16.125	0	0
16	0	0
17.125	0	0
17	0	0
16.5	0	0
16.478267427857	-0.108008273171	0
16.625	0	0
18.125	0	0
18	0	0
19.125	0	0
19	0	0
18.5	0	0
18.473681471998	-0.115768873419	0
18.625	0	0
17.5	0	0
17.47687846862	-0.103462148239	0
17.625	0	0
20.125	0	0
20	0	0
21.125	0	0
21	0	0
20.5	0	0
20.486446843971	-0.114298370976	0
20.625	0	0
22.125	0	0
22	0	0
23.125	0	0
23	0	0
22.983281399654	-0.116385827149	0
23.5	0	0
23.509214189908	-0.149359691049	0
22.625	0	0
22.5	0	0
22.48467632496	-0.1093719097	0
21.5	0	0
21.488472844532	-0.111208801785	0
21.625	0	0
19.5	0	0
19.482219828947	-0.117572233456	0
19.625	0	0
24.5	0	0
24.525433875838	-0.108080714825	0
25.824234283709	-0.149177038136	0
25.5	0	0
25.498573523516	-0.096586408813	0
25	0	0
25.014769107289	-0.095147895568	0
21.919931345447	-0.741308582321	0
22.160361550711	-0.463896476278	0
26.625	0	0
26.5	0	0
26.482631880244	-0.108512805864	0
27.625	0	0
27.5	0	0
27	0	0
26.984612185119	-0.111680714924	0
27.125	0	0
26.125	0	0
26	0	0
25.990349817319	-0.10847866492	0
28.125	0	0
28.625	0	0
28.5	0	0
30.625	0	0
29.625	0	0
29.5	0	0
29	0	0
28.983089608831	-0.107750428826	0
29.125	0	0
30.125	0	0
30.5	0	0
31.63125	0	0
31.5	0	0
31.494696987447	-0.123712578064	0
23.671261205816	-0.380102168636	0
31	0	0
31.125	0	0
30	0	0
29.980228243528	-0.115525062547	0
28	0	0
[...]
CELL_DATA 2263
SCALARS 1000.00_4.52 double 1
LOOKUP_TABLE default
6.316282157222 5.8114918675834 5.9112512431478 7.0102325427685 5.4501686390062 6.9126690344653 6.9902109611158 7.6746760958835 7.6284249887467 7.619643226139 7.4746525755122 6.9877271079614 7.002404539604 7.3136596521322 6.8392571276862 8.6569388975639 5.6477872311835 6.146584990314 5.5833458752959 7.2200394778165 7.0622811305711 6.6941470528266 6.0499863982046 6.0150535510172 5.4296014884492 7.0192996615475 6.1346570694526 7.0427738479121 7.0265769731536 7.168780056836 6.9158530654612 7.8679358575011 5.3359986057541 7.8918039868277 9.3153520677748 9.6577946477039 9.5941639979991 8.6239419987943 7.4834492818719 10.136458743776 7.9935443709207 7.3911949788374 7.255603359387 9.5402439179198 7.4796123022916 7.7232184218795 8.3703139056616 7.1761440367377 8.3505141624711 7.6267150052541 9.595673459911 10.253602552511 8.3333619858665 6.641107539563 7.3964715507052 6.4671850832079 8.4629984615459 10.378747446035 7.1234243141028 7.3105607130598 7.4976585591086 10.281433577516 8.5624353676733 9.9257703040958 7.6190899857811 5.4074070276886 5.529622778435 5.1686385036459 6.8200016094359 6.939593555279 7.4149566444056 7.7989278963278 7.3217437993945 7.7538126389162 6.4104549303754 5.7017152591658 7.582907737337 7.4637178459184 5.5455110448199 7.1492972257487 6.0227050714166 8.4194211879987 6.3140016739646 7.2726316571915 6.1033579825386 6.7082301348693 5.6111622756772 7.05062876933 6.5554178985977 6.4419031918185 7.7000054542132 7.2495613907556 7.3981551752715 6.837578173603 7.9261256876836 8.6226447452016 9.5583903318126 8.7789334925535 9.3253785376059 8.0851235542339 10.026597293698 8.0561114302173 7.6527402016433 9.0237899508392 7.6805912444069 7.1475978623571 7.8676126651445 8.5925675737587 7.1070219855974 8.313980968942 10.136412459354 7.7168066702009 9.0013525759815 9.8351847872701 8.8734154836104 9.2581855726412 7.2272180821405 7.1487317016394 8.1878263594411 8.7973304821832 8.5010727361634 7.2898373005284 7.226935836587 6.7779770842194 9.5349001274097 7.8997333224214 8.0681926586476 7.0397847308445 7.8258982370415 7.7744189036496 7.4837956071219 7.2674125249201 7.1310866783045 11.846065588693 13.969251146173 6.5400727194484 6.4880524910336 7.2106761282763 7.2981714041203 7.8081573326659 8.1197832505668 7.0393134298998 7.2888140489944 9.1872741699384 9.2622885168859 6.1481796311206 8.6986590590165 7.8090323863138 8.9520349382429 7.8560698872851 7.8016685305989 7.2534400516012 9.1892853261339 5.6183907988563 7.4287337881898 8.5545445831916 9.1490652529093 7.7221959002835 7.6270233195102 7.8132161513385 7.117727799269 7.7579343739823 6.0855358819088 8.8660146020667 7.0390862912724 6.917457105234 7.0877106391346 6.0236481936208 6.6105760138679 5.9746174834954 6.5292192947077 5.7455063294301 7.1697624439855 7.6237584208432 6.6632594543824 7.6161478797646 5.3749781135423 7.9280464692336 7.9604683416456 8.1178703269522 8.2246657655077 7.3177279512594 7.2216656196274 6.8217749471293 6.8746945239026 6.78666429916 6.4803190278894 6.4152589355429 6.3136378655315 7.5509499481098 7.5686048566373 5.3580005342364 6.0806286656733 5.2865681929263 7.5380219711849 7.5164527671855 9.5031596037932 10.970880256154 7.7751382192142 13.634765517634 6.9656388179994 7.1479729047126 7.5784491806068 7.1530446735079 6.7088620589399 7.7215275850444 7.4638335690801 7.5482165067643 8.5467387410564 6.2209796170818 7.0131005756476 9.7407180976669 9.1405562571877 7.8085321239546 7.900287910712 7.2917282994182 8.0825195586386 7.5735208532258 9.2390397269368 8.8528739883264 7.3656798781452 6.9214531597678 9.4402403527093 7.166808950321 7.9071389531879 6.9738877859021 7.0971133340203 8.7406496754529 8.4486830136792 7.3851287624243 6.6709127874884 6.1576946199446 6.4367478375698 7.3903358135212 6.4669333317736 5.575903647505 6.8805114998812 7.613381387545 8.1459386728341 8.1570477213055 6.7794885423797 7.6786728196456 7.8566934772936 7.5073015508325 6.3609886105058 6.5978628350939 5.3604957322695 6.452267319717 7.1809197460622 6.7618902835836 7.6298650820698 6.6785159950596 6.5513776799205 8.016906648948 7.9433280681988 6.4317197616833 7.4650363220288 6.4265656934341 7.8184702382281 5.6073010947242 6.0774747741826 6.1926949189832 6.8503807913805 7.2319181689263 7.7974854779316 7.5163811428346 7.3830982402896 7.7067965081372 6.5906772809765 7.1891393338577 7.5498479373841 6.5478515512202 7.7615711423361 8.4961700427438 5.7234083891903 6.3138363569377 7.2676571515683 6.9450625783112 6.8575393413962 6.0477270509848 6.3756916255448 6.7926529517148 6.7122036232437 6.343371469265 7.2734907800652 7.2507635087702 7.2347651451116 7.0443384186421 8.7854325493109 8.424718379129 7.7494454285639 8.5653659364159 9.184018521864 8.2920791172449 8.3982421754155 9.5754803830911 10.041967089485 7.3462594448343 8.1317544880173 7.8081154096692 7.5732639205482 8.1387492400906 8.0659521781074 7.2535723801013 7.4683097945576 9.3765243586146 8.6824119884359 9.7144802721215 9.6426571488273 7.0986145036632 6.9801457769704 8.6818800123873 7.8325162943557 7.864399959586 7.045873067097 7.2043226540744 8.5813252109618 9.1244031103119 8.3558077381962 9.1025722483399 9.6584208077711 5.238689991937 7.703017042396 7.8089576579592 7.4392225599224 9.318737515186 8.2653689233386 7.4161386637091 12.127912676589 12.195765646313 6.8490024871628 6.6989027932827 7.2760780985948 7.4154012062372 7.4525323310585 8.2353172337202 7.7587648976053 6.9118537719886 8.9115731650125 9.4870298712432 6.5519736610456 6.5169432085125 9.5929295286481 7.7569159768047 7.8337925892927 8.395070036864 7.6668218771239 7.4119558929852 7.1636862467908 6.7537960740039 9.0311561271737 8.7287898838443 7.1974356553899 7.9885619843353 7.0891824833818 7.8760694442429 8.7328423537209 7.8684714079119 7.47132724554 8.0955425308626 7.1238572744982 7.8491315012597 6.3240980473216 5.6802356909772 7.2141261629603 6.4337087817003 6.9076561004018 8.0720294146288 8.0050118240475 7.9799017063373 7.9974255461661 8.3884884670923 7.6067712527619 6.9275135212059 6.689070771341 6.8741686281711 6.6631046696531 6.4065040368034 6.4985525878631 6.4422976190448 7.7395399591271 7.6054409768406 5.4718078977898 5.8415509484371 7.2688016544018 6.6473481607904 6.2115219374243 5.3408643666203 6.3228266303908 5.4761846791802 6.3990132028127 6.8152606073705 7.1672248436873 7.3978373069487 7.5276461567014 7.1785278542206 6.9274989958197 7.170565323394 6.2649080666335 6.0300753179161 6.6344375691907 8.9157287520431 6.6813689685464 7.2086043331094 7.1141576226751 6.5646406231743 7.0042337386913 6.8065182674389 7.0717653156674 5.9032294785308 7.1633307702446 8.0351500409332 7.1449611183161 5.4867722727092 6.8015662840295 8.1221879865026 7.6743082290434 7.5129559264952 8.5278822771835 7.7575152979063 8.7473178193558 8.7562083298663 8.1356562686408 8.2259732027617 7.3232779086681 8.4043247678984 7.3393757120674 7.6674307042841 7.6855116981632 8.1652022991511 9.0821716086763 7.9279962707843 8.4389430795425 6.9700922588419 9.6244441066574 8.7038718284565 8.1863959504716 7.8970735150605 7.7184061347146 7.4974938394101 6.9573709425704 8.2756429926917 7.454761453935 7.8762247345862 8.9475379235397 9.6384844294633 7.5544654396222 7.3441846540754 8.6895858746821 9.7229903726165 5.7064651417456 8.2767170614307 7.3471090415103 8.0314406261158 7.312505940801 9.8726888798292 14.439821955059 6.4975714376476 7.3261596985623 8.6988693642576 7.10194156219 6.9757158777828 8.3988154953545 8.0562726831914 6.858829982219 6.5454175352887 9.8271248721784 7.6428067625636 7.1956057607422 6.1346814615711 6.5709391076554 7.9367083577694 8.3273131090988 9.1504054014881 7.3324318914289 7.2169797524073 8.1731189497809 6.6406845598673 8.503852823488 7.9040735601864 7.7100178194454 8.1274632201495 7.055351935012 6.471116668174 7.4362547360947 7.3578734233472 7.9407813014689 8.6655062849765 6.4532919297943 5.8606604291511 7.410830226885 6.5548943291469 7.1264073723679 7.8709798167844 7.4974458968882 7.3995329731575 6.1722183755886 7.4978309760296 8.3648534425249 7.0913409075742 6.2212649562081 7.6209045566042 7.5448155051883 6.4442006232203 6.3003237286832 6.4225849456375 6.5223425409633 6.1214132389752 7.4976330411089 6.9449078864802 7.9556750169775 7.8799204980195 6.5043756903616 5.8604096178206 7.2394699233794 6.2571551795966 5.2227962485196 5.2068372580523 6.4952119220756 6.1841362618451 5.8501190919133 6.0253089356199 7.027517549405 7.1094542794031 7.5511005597225 7.5843260665463 7.5032976137294 7.6081699183839 6.8716359913631 7.1913486221101 6.7987056929872 6.8875523286329 8.0365480870298 8.7351142812619 5.8378101742512 5.8912868776884 6.0066969993814 7.1430122612927 7.5838685489417 6.5689284577257 5.9699795069258 5.5855097384027 6.5379300059868 6.1702561948264 6.9465784298877 7.153677803754 6.9378370649984 6.8931932155614 8.9720487776134 8.3684223324878 8.1623754467063 7.7536460590416 6.3411786328077 9.4032833729692 8.1255774030254 8.6048270701705 9.6268007220052 10.171469136583 7.6218685289883 7.6690354274059 7.4350667920679 7.4150093423043 7.7375670572427 7.7384424041309 7.1849395403749 7.4154114131778 8.5159225683369 9.1521157011789 9.738544230929 10.147754950947 7.0513905101078 6.6498407839586 7.7648399803635 7.9630820781625 7.4885250508244 7.0515555488815 7.8658776822763 8.0824177305506 8.4242887389493 8.4010412907844 7.8488928922399 10.373966953355 7.3579316225465 7.8105909322784 7.9904434840516 8.4865158881723 7.6687180870798 7.2974297839627 12.052461445547 13.52590447489 6.4570308484959 6.5211435873149 7.2413533863366 7.3932685026573 7.6305940003636 8.3279824487231 7.1992024857358 7.0033089995681 8.955710084502 9.3187284868176 6.3236210118754 6.2835209723532 8.1880954770756 8.2681432658705 7.8648961087566 8.1007146414859 7.7921747855464 7.2962459573214 5.5151866135311 6.9795214963957 7.7623054367573 8.9799847310994 7.4953517326798 7.8826490220017 7.4933012959328 7.4956460503434 6.4214212962703 8.0119153359597 7.340047062309 8.3892409323857 6.1530094478401 7.149966846029 6.3672926421337 5.7797389962395 6.8945064859183 6.4846514714015 7.3195681840621 7.9229529416671 7.8198971917013 7.9770839731508 7.9633349349228 8.3733198676749 7.0737393795759 7.0838273726362 6.736630758435 6.8795070981591 6.4595681805557 6.414467393611 6.3616961867731 6.355421177407 7.524470374162 7.566928897285 5.5253552765431 5.5381198499356 6.0450822219357 6.1459133391487 5.2766094573528 7.2931259406303 6.752657626594 7.3371449527654 7.350762648139 6.0669446778546 6.9981686888089 7.2100890739211 6.3081745586658 6.2399191732226 6.8654109484006 7.5468579474703 7.0004455574526 5.9371684224219 6.5078321419459 5.8332990006892 8.311086594996 8.3103210153028 7.7472207233737 8.8099318355494 6.8403217251074 10.072993259168 6.5912673651178 8.8078301668068 9.3572282550128 8.9970306770289 6.8897209073701 6.9992282870218 6.8781282781877 7.8550175327962 8.1155822505685 7.7154751968361 6.1865119542613 8.057005691908 7.3550603896925 9.2610848070567 8.6463677259999 8.2682674779613 7.4239637461137 7.4090738090785 6.183227212805 6.3893721972373 6.8960643050807 7.3378635582274 6.9315444627931 8.8143634082948 6.6481480440917 7.5125837877233 8.1694747912257 7.7976857463832 7.0570676348321 6.7084283604087 7.2462477105546 7.0054888853244 7.666458477698 8.3374310704155 6.6582926603938 7.3429298810947 7.7867942973192 8.4417132488714 7.3486587484437 8.1357451344782 6.5057326818544 8.6728065118081 6.2447403929608 7.7860380840862 8.1567660798568 6.7816817766471 6.9310727062682 9.1158869245863 6.0015702543261 7.3138110510947 6.9848681732697 9.0829873788715 6.2274564492361 6.5065145183372 7.5634543630929 7.5161083788267 7.3848501135728 6.7863495667206 6.3848463756418 8.373077830884 6.7826212476433 8.0417554540325 8.3105583176792 6.3203452133482 7.3010285229387 4.9098494473795 6.1812178357539 6.134732049801 5.1399126323301 6.1610952207761 5.9130858005721 6.709162742485 6.6242581355291 7.2392770070074 5.4040183585675 7.958840100524 7.6448696851148 5.7538039789968 7.4005082658472 7.5780991265063 7.3054462913082 7.6288990033325 7.5823697437807 7.2790823067178 5.4691548219332 7.7623861093062 7.4917582543525 6.6686954964439 6.473880894708 7.1653463817681 6.5045718773176 6.7042205770615 6.2898528439938 6.3779272939259 6.0918820793619 6.0124366214219 6.2042152305283 6.4416978420201 7.0033641292545 7.4112486348473 6.690289687358 7.9332650367714 5.928832998162 6.3433826541237 5.1612733700445 5.3681358768583 5.6834864283791 5.5424647665961 5.5816973526495 6.6563830229592 5.3515267068912 5.638350925506 6.2044370313172 6.4291682747045 5.683705914564 6.1335885757138 5.9223876547983 7.2714634546061 5.4937455674894 6.8792449119145 7.0182407071798 6.4331624515518 6.4695874543134 5.4897410563041 6.3990237633713 5.7903977301945 8.2303554731062 5.947471567521 5.7554773630593 6.2002385977461 6.3850439746465 7.8642616187732 5.9886977730509 6.0674481327043 9.5117849176753 4.9480366862873 7.614000784739 5.7680195861318 6.8479782026358 6.4460708321687 6.3132863020309 6.6181937995283 6.7581702806076 5.4491450300442 7.2111423556944 6.0713241149837 5.8111707706351 7.4452442500228 7.253867425151 7.5147777924016 7.5031552122654 7.8137121969106 6.442220963491 8.3841553883779 6.4264852061326 7.528910990276 6.8903631732561 7.5125380609992 6.5308777045832 7.3299677178163 6.7270243864487 8.0014781054842 6.9517596349257 8.9216874336068 8.0592748059402 7.538430413346 7.4283122906431 6.1574323912919 7.4492776468732 8.2248334656139 7.4407030494511 7.0531846712291 6.2080125819639 4.5849091133681 6.966609869784 5.7039801801156 6.3135986294671 6.308700520824 7.2458723099919 6.3169922592652 8.1766585991832 9.6954240465851 6.4084234945627 6.3583383519885 7.4886485481605 6.7324651896379 7.2717552617775 6.3360749922076 6.3566230528543 7.2748536797774 6.7153318453024 7.2163751682449 5.6968712019079 7.7742355530437 6.8272701824941 8.1950654903171 6.4448025612793 6.7522614205915 6.8585626271331 7.3972707913792 6.3071776777087 6.2372010399671 7.4912280754473 6.8943544841526 5.9705120340377 5.2876021997721 6.7666654603941 7.3251101554704 7.0701517729293 6.0576450055951 6.4830395535682 6.2428219072584 8.2845959458298 7.2654399406472 4.7604315087402 6.9883289896497 6.7801494863585 5.0739680146019 5.8720739024571 7.3029666433535 5.5827495295127 5.4864959181059 6.8911585233461 6.4999528324268 6.0861891429891 6.3568096170132 6.229839388217 6.953061593459 6.3508472796494 7.3454860508497 6.8941252759278 6.5137090080172 6.0479952678558 5.6045051070078 7.372633071805 7.1765800426941 6.3804010074462 5.8653397792683 5.8103969448604 7.1030570534435 5.0539879853116 6.8637345741862 6.6051925349733 5.8545905967949 5.5681801761154 5.9104033166996 5.0886022459643 4.7939598775498 7.4415872631346 5.4670927135056 7.9827127016591 5.9357780449721 5.7036589392305 5.7777514056622 6.7895028827924 5.9329060472422 6.5539126026481 7.7900466167172 6.4319295168967 5.8111811175318 6.3302226363172 6.278179692285 5.1216638201145 5.5839624748179 5.90742754148 7.0288093760191 5.2280148146623 6.8788219226163 6.9213012365683 6.0908581653919 6.9376272076265 8.1640792705189 6.4068990615662 5.1363360566411 6.4045998394391 6.8289158752892 4.7161179920702 7.4736478223356 5.8646071197492 6.2206999576316 7.7891332650169 5.3041277435186 7.4731214035606 4.9993954433182 6.836050579161 5.7364359799698 6.6967437566402 5.2979912653754 6.5551145554391 5.0408013898057 7.7502947438232 4.5898680151612 7.0088346854573 6.7255331521519 4.8509320089482 3.8076080318855 5.372695416474 5.7571556857194 6.3545612126396 5.3204581577116 7.0228535242136 5.4288684428577 8.0208887824539 5.1087933350485 5.1246937808276 6.1061663399952 5.0884929887817 6.0110151184341 5.4643216322986 5.8354755964759 5.8473165905676 5.3332503379912 7.3328462434969 5.4929933695624 6.6300916105769 7.2990667446467 6.1048655652362 5.2427569311969 6.1054914117258 4.424066076461 6.5231014667334 6.9451519116804 6.5769727702429 6.9794917902876 6.163884216071 4.4804030351939 7.188583229679 5.3005849377613 6.7741834297362 5.0864380605569 6.7526666197542 4.8815481806801 6.4541833761041 6.2200997800738 5.0720816002454 5.3923796720368 6.5169931086549 6.126996852517 5.4146428805743 6.2961477335327 5.6858592512031 6.0688411582895 5.5003205539774 5.7581276648056 6.80493585793 5.1808727238022 6.3429264513996 4.2897095862283 7.0065777044252 4.7573812570693 6.5871997358623 6.2098846550114 6.3470384334961 5.9165843468488 8.0140088137593 5.5035105556712 6.5694107140337 5.8236135628356 5.3560904034925 4.6964523925054 6.0925112071655 4.6817550125013 4.6080584580121 5.3147645915306 4.9790679506422 5.1372659773157 5.4333999347986 5.5097767654804 3.9742319908544 5.1516848184643 5.0801299795495 5.1186848211593 5.8060506130428 5.6839778747306 4.7377780441352 5.3230105026448 5.0903112032543 5.2129697943709 5.0956750071367 4.9405950160147 5.13384108821 5.7993377517008 5.7381532742922 6.3936208370388 5.7488125014783 5.0721965799681 5.1824349071629 5.0552723046542 5.320131065778 5.0098792048192 6.0256711915032 6.978734254687 6.912989528872 6.4014489570486 4.8511781430743 6.1374521584564 5.5175597751832 6.9980277387814 5.3296739760111 4.8174477417387 6.6012022831432 5.4405506628993 4.6942261308272 5.6054940699993 6.1951158359703 5.0064682495078 5.0099271945917 5.5871412515568 4.8972315139403 4.1962504448075 5.0474258788127 4.7147456075036 4.6497267352264 4.2195764614403 4.226250777056 5.34390277888 4.4756970468719 3.9819514808407 3.8555567411167 3.5436423230449 4.2330836072937 4.3431511987799 5.8021717467949 6.2443723536615 5.4317054730535 5.6741269888737 7.2673857026025 4.7422344853183 5.2335644559375 5.2704113326037 6.4025325161927 7.0048295817741 4.9227259266829 5.1274394996317 5.6730581738425 6.8136093715036 5.4182878505429 5.1593634155973 6.6122483513044 5.5864879338165 4.5241530353859 4.852281198173 4.5703433027737 4.7357844117709 4.0601061904079 4.6175543601902 4.0385317039685 5.3796310099177 5.5986986964255 5.4929087448897 4.8640915230588 5.6198136460604 5.7455042112167 5.4899530760519 4.8407331008166 4.8831901247338 4.6663655857386 5.5294936705801 4.7001544622306 3.7391978872593 5.8401902706564 5.330965997171 4.758840714141 4.4467213029422 4.5430531225547 4.2252266594463 4.1745992129802 4.8990990946138 5.6844984088762 5.9866372651437 4.303516073044 3.8330581439665 4.525394312912 5.1980390036879 5.2829696299746 5.2374795596085 5.4978365908561 4.7269468314755 5.0934768053581 4.4210573072914 4.3371030624483 4.0670264481137 4.2919015261909 4.9324686032943 3.9625084677659 3.6395561260933 4.4506100400656 3.8820913893754 4.049545375401 4.9935500067063 4.0089715132398 4.4532664577443 5.1650244005651 5.6013309778015 5.4385319743677 4.8487217751171 5.3113610886274 5.7320170512258 4.8759604640506 3.6713415962724 5.592045427253 5.5822319671413 5.0924804486388 4.2319880420635 5.2522248134468 5.00267645549 4.9545533464049 5.3921010422511 4.8409665125235 4.2468686917785 4.7975145173138 4.1226541185956 5.6300673090398 5.1603605018836 4.1756243972105 5.1211548913339 4.6377952383143 4.6757219071411 4.9088324395451 5.6712172443571 4.4242815091668 4.573181304543 3.6973391432169 4.4095931008884 4.2286651463933 5.5131392968834 4.6519594712265 5.1076908206959 4.489413845832 4.083310173557 4.8393013096822 4.3392111722658 4.8235499620423 3.9436911327245 4.0430346426969 5.2754791604369 4.5218324083546 3.8643027652212 5.3408356692787 4.3797963644117 5.077651429012 4.2189336398668 4.4954759726851 4.7513460286524 4.1902708797999 5.2812891802956 5.0149177594139 5.6779562175599 4.9480951670258 5.4456790561918 5.3704732402588 5.6830845066283 5.0821536159009 5.0975831303864 4.6741210058744 5.3777616743698 4.8058622578447 4.2397720870696 4.0203074717993 4.2531385841615 4.6339878928326 4.2964981165544 4.2369214115905 3.9548855390412 4.8842250111559 5.1466075603306 3.7513412087649 4.0179887462834 4.6515314500042 3.9526904547669 5.1184980706101 4.3610016467978 4.1879495653089 3.6596232055826 4.4597015951548 3.6777420804958 3.8075314767835 4.3070348612091 4.0952300396163 4.3842647720373 4.9226793195513 4.418488875143 3.7920033175969 3.8833971780817 3.9775333280705 5.115