# vtk DataFile Version 3.0
d-2__ created by libgimli-v1.1.0
ASCII
DATASET UNSTRUCTURED_GRID
POINTS 570 double
14.5	0	0
14.25	0	0
14.386963504964	-0.201738469428	0
22.399299936458	-0.310870122736	0
22.129824335287	-0.229914148082	0
22.126320781198	-0.518791771445	0
8.472303742627	-0.591754876635	0
8.780507935475	-0.76092407121	0
8.82173151259	-0.349253271447	0
18.663262297679	-0.667179415955	0
18.934786529245	-0.453308328646	0
18.636898038907	-0.29588182328	0
4.016904362632	-0.85330676142	0
4.076038737616	-0.331410355179	0
3.713721571226	-0.470767763626	0
1.89953779852	-0.269343012166	0
1.633800503821	-0.203067612233	0
1.644492760828	-0.441295523531	0
4.368408037607	-0.250833874131	0
4.337474161742	-0.544420985055	0
4.67745607622	-0.378433532554	0
1.406172533733	-0.772361039307	0
1.913288206557	-1.218576310882	0
1.90687689783	-0.651895683444	0
2.5	0	0
2.25	0	0
2.347047126858	-0.185539804102	0
1.374000926997	-0.300418771701	0
1.25	0	0
1.114902662369	-0.201591505098	0
1.067401015567	-0.470108640981	0
5.75	0	0
5.699780065382	-0.324747799653	0
5.924584257371	-0.172748359932	0
0.883560935405	-0.231136840652	0
1	0	0
9	0	0
9.117836368049	-0.253904480787	0
2.625577516194	-0.346770599322	0
17.859079774019	-0.943547525024	0
17.535029634209	-1.703182852412	0
18.338018094476	-1.366069799339	0
19.932263871771	-0.826489183604	0
19.881635677668	-0.346204516721	0
19.622287080959	-0.573770479943	0
1.5	0	0
1.75	0	0
23.25	0	0
23	0	0
23.109690227386	-0.220340974338	0
2.75	0	0
2.142562771237	-0.172460438312	0
2	0	0
23.332392704446	-0.202507275941	0
23.5	0	0
19	0	0
18.75	0	0
18.888143078348	-0.195773419804	0
2.90152418742	-0.185685383897	0
7.612175045312	-0.180627982114	0
7.527150943175	-0.401430797998	0
7.881917737402	-0.30462800112	0
25.630635194756	-0.512020961038	0
25.243766894324	-0.80097755811	0
25.758031115142	-0.952821630144	0
3	0	0
28.84859809239	-0.201276387394	0
29	0	0
28.75	0	0
4	0	0
3.835807353334	-0.199536243303	0
3.106904732949	-0.178783649348	0
29.25	0	0
29.092446172194	-0.305987136665	0
13.5	0	0
13.667851890428	-0.185102765244	0
13.75	0	0
3.75	0	0
14.407363653886	-0.441423674912	0
14.125469935998	-0.279652141152	0
4.25	0	0
5.061980176718	-0.407989246181	0
5.335512032876	-0.269401530321	0
5.113979852892	-0.173834924157	0
11.882046000841	-0.812345557852	0
12.478640631525	-1.146569360669	0
12.244190771573	-0.565936619511	0
3.633270844505	-0.195395238442	0
14	0	0
18.378272976509	-0.514977451159	0
5.5	0	0
9.619519097921	-1.16461851757	0
10.030576753886	-1.587265312651	0
9.961661342999	-1.070235523667	0
5.25	0	0
5	0	0
13.157975569138	-0.830425793913	0
13.83833027638	-1.238601004239	0
13.671302359608	-0.710707966059	0
11.325917093147	-0.8366783502	0
11.612143285947	-0.506264798476	0
6	0	0
7	0	0
6.83842404292	-0.188923754932	0
7.11236984822	-0.391746146843	0
6.631875629497	-0.169178192832	0
6.75	0	0
3.21002197083	-0.595267231049	0
3.445510026908	-0.608065324465	0
3.362318141622	-0.306501255187	0
6.120159502895	-0.164221934939	0
4.538525595924	-0.906226152762	0
13.233775457127	-1.737244787017	0
4.5	0	0
16.138065841822	-0.472802517973	0
16.126746690205	-0.221608117926	0
15.859319180798	-0.326402762318	0
26.080401003391	-0.227842452866	0
26.25	0	0
26	0	0
3.019224421113	-0.401469974918	0
8.234901607028	-0.35771789179	0
8.518285578354	-0.242327591839	0
8.328777073389	-0.153008859619	0
7.25	0	0
7.400656881666	-0.195280611572	0
7.5	0	0
5.385509485898	-0.709154879541	0
5.948697127931	-0.745234910621	0
8.75	0	0
8.5	0	0
8.25	0	0
2.214249105773	-0.404278959534	0
2.896561357202	-0.792481120253	0
9.25	0	0
4.920911116561	-0.192028847294	0
9.651670336652	-0.200847798694	0
9.849824537955	-0.19917205686	0
9.75	0	0
10.095049354068	-0.315754204277	0
10	0	0
3.25	0	0
6.738406513564	-0.710129601907	0
7.121614580011	-0.943026074581	0
11.345829942703	-0.314788260019	0
11.25	0	0
11.104427225455	-0.188863495516	0
6.052412255932	-0.372556729023	0
6.373371846535	-0.274163514827	0
10.25	0	0
10.380281579003	-0.241092027437	0
10.5	0	0
10.75	0	0
10.909079077441	-0.189427130481	0
11	0	0
6.25	0	0
6.5	0	0
4.75	0	0
3.5	0	0
10.672815698565	-0.318467932684	0
10.772487906066	-0.787092734739	0
11.020900486567	-0.439266778492	0
8	0	0
7.75	0	0
11.5	0	0
11.619450354737	-0.231443672836	0
11.75	0	0
8.139317726831	-0.163309591658	0
12.25	0	0
12.158949464947	-0.235415698299	0
12.412455385193	-0.275030800337	0
12.929165084344	-0.221336108042	0
12.686337592177	-0.258437422252	0
12.900449535554	-0.462768612232	0
12.5	0	0
9.405755833308	-0.325979504745	0
9.111697192308	-0.594170467817	0
9.457257345083	-0.753685223931	0
18.101369157139	-0.618560521812	0
18.336839281097	-0.861122419318	0
10.385948631267	-0.570640149046	0
9.5	0	0
13.411260455969	-0.342646276848	0
12.643108055516	-0.590179775368	0
13.137744715761	-0.195204172124	0
13	0	0
21.25	0	0
21.358341816502	-0.326561417551	0
21.5	0	0
13.816492716597	-0.40394453634	0
20.25	0	0
20.423452336785	-0.313445603959	0
20.5	0	0
17.789350393153	-0.390447709085	0
17.987794057246	-0.401472255242	0
17.881276545163	-0.206424156589	0
19.564465692234	-0.270867872644	0
19.290725118801	-0.49926248604	0
16.392319441256	-0.29915360323	0
19.443730892406	-0.923508713428	0
20.457987075478	-0.803203365193	0
20.167450719332	-0.505159975143	0
0.103762538371	-0.253013629949	0
0.267057015134	-0.483604909932	0
0.374713194419	-0.2320817565	0
13.25	0	0
17.415572543912	-0.230682214253	0
17.5	0	0
17.25	0	0
18.108153655084	-0.208141099276	0
18.25	0	0
18	0	0
15.75	0	0
15.544586046819	-0.246453491997	0
15.122708481244	-0.193620038745	0
15.25	0	0
15	0	0
19.75	0	0
24.149237782749	-0.319013340846	0
23.842766599446	-0.577371105011	0
24.183995039967	-0.73159476451	0
13.871646321742	-0.17394291424	0
23.862588150518	-0.245417872715	0
16.84024277193	-0.203626765466	0
16.704049384397	-0.435508179396	0
17.112673188265	-0.38804641709	0
24.75	0	0
24.832880292394	-0.290571430318	0
25	0	0
16.40158555625	-0.755912194683	0
16.850299990829	-0.757941865332	0
17.75	0	0
23.567455674596	-0.325197491724	0
16.25	0	0
16	0	0
22.645812614293	-0.197864648876	0
22.75	0	0
22.5	0	0
16.75	0	0
17	0	0
24	0	0
26.914424714815	-0.337869958787	0
26.621963281699	-0.624626679172	0
26.977877660759	-0.778408201088	0
26.622424322919	-0.264588309935	0
19.34462271879	-0.199329831305	0
19.25	0	0
19.118057075065	-0.225686869553	0
19.5	0	0
26.75	0	0
27	0	0
27.5	0	0
27.604422363523	-0.298869962794	0
27.75	0	0
17.650384190064	-0.227839036584	0
18.343198956448	-0.236734208617	0
18.5	0	0
24.25	0	0
20.143897114391	-0.233773711865	0
25.5	0	0
25.25	0	0
25.344389320279	-0.31693710653	0
21.059546193318	-0.24845941382	0
20	0	0
25.842927934822	-0.248287716678	0
25.75	0	0
25.613904645132	-0.216025146631	0
21	0	0
11.763551406169	-1.481607093928	0
30.981104050195	-0.5526690913	0
30.873880294509	-0.217692518774	0
30.706626759758	-0.34945139905	0
20.75	0	0
20.85240828135	-0.178025243856	0
23.75	0	0
20.66289882074	-0.189089155251	0
30.204950808504	-0.791758966623	0
30.715535843381	-1.149995259266	0
30.543724897762	-0.572259098027	0
30	0	0
30.180216671806	-0.343473673313	0
30.25	0	0
23.229584388362	-0.458653998547	0
29.5	0	0
29.623391954444	-0.322069028408	0
29.75	0	0
21.618913855927	-0.233585823579	0
21.75	0	0
29.348490380579	-0.521100538161	0
29.36294710412	-0.230601226356	0
22	0	0
22.25	0	0
28.25	0	0
28	0	0
28.129259193923	-0.314252106503	0
28.44374413871	-0.484576386004	0
28.100199615755	-0.812038297775	0
28.649230646972	-0.871769248311	0
28.618403654115	-0.227691192115	0
28.5	0	0
28.387848605749	-0.205892081491	0
29.054768525933	-0.708603081552	0
29.344906532636	-0.846887322836	0
26.327430876245	-0.35930637997	0
10.349120516034	-1.04150119828	0
10.894920134778	-1.514321070539	0
24.59640839418	-0.191760546865	0
12.75	0	0
24.5	0	0
13.102881121377	-0.411296235356	0
25.099388239946	-0.214879887129	0
25.97986022697	-0.52841375324	0
24.398993403151	-0.196312410538	0
17.860840746535	-0.577367743328	0
17.566481510048	-0.529340016102	0
26.5	0	0
16.637148248735	-0.188015807345	0
18.183918302467	-0.396443618316	0
27.159348252167	-0.205297590358	0
27.357530053515	-0.198815038154	0
27.25	0	0
15.060354649709	-1.112587998155	0
15.51532665618	-1.043792149387	0
15.178150912169	-0.713100616689	0
10.051363365948	-0.719159376333	0
14.661248691948	-0.27865166374	0
14.75	0	0
27.868836823455	-0.217301839861	0
31	0	0
30.75	0	0
-0.020273477909	-1.415389842481	0
1.054972770973	-1.487485199502	0
0.512583677021	-1.0438154777	0
0.75	0	0
2.361419414365	-0.794513604096	0
29.890297721653	-0.2433406165	0
30.473599299501	-0.238575611274	0
30.5	0	0
30.660802173874	-0.161931182737	0
28.783812899585	-0.467926883932	0
4.937022539393	-0.72440615077	0
6.696914540879	-0.380672503721	0
7.434272221796	-0.695675918868	0
15.339606453815	-0.166204802571	0
15.281953315711	-0.388999642276	0
11.893544445085	-0.335972898148	0
12	0	0
9.753796445798	-0.478866225926	0
7.720012958977	-0.638314519759	0
21.871398197179	-0.313006985103	0
21.615176662754	-0.521922347305	0
21.856785525528	-0.665128848631	0
20.792152536902	-0.448319093295	0
21.109577821412	-0.527879642114	0
21.360297691811	-0.734200004244	0
15.547854961707	-0.580173571081	0
24.496861814148	-0.467031445896	0
25.067351422649	-0.463427753535	0
24.81263825963	-0.684738154192	0
22.865620821195	-0.218348593093	0
23.443705587002	-0.773171720633	0
27.277617447467	-0.489224417775	0
27.863714790534	-0.471681393437	0
26.239117668995	-0.863279739365	0
29.896797054636	-0.547765129844	0
29.612773839625	-0.699757135752	0
29.867172666547	-0.87444432816	0
29.610354212963	-1.521444655905	0
29.59548165142	-1.071765512911	0
29.115129171034	-1.220660174798	0
31.345359428525	-0.458952144926	0
31.144859415042	-0.241304201582	0
15.919565295974	-0.746550096707	0
16.063006820294	-1.289595303187	0
16.5	0	0
14.900855313538	-0.178071167744	0
14.161016743654	-0.72559708689	0
19.011498044983	-0.834202892304	0
16.760433281999	-1.263698818643	0
17.280361389946	-0.931704507314	0
-0.627742252535	-0.296285438777	0
-1	0	0
-1	-0.5	0
0.625738545692	-0.228405936136	0
0.5	0	0
3.313957665883	-0.865581185485	0
3.619156095452	-0.800599314657	0
[...]
CELL_DATA 986
SCALARS 160.00_0.49 double 1
LOOKUP_TABLE default
8.5163671632994 9.9230440689036 8.7293577620185 6.8208134574839 5.9598269572444 8.9783808719665 7.809537945842 5.7853206852833 10.341082714744 8.7400223964968 7.9819558578265 7.619842146102 8.1672777078331 13.655562546 10.224833164684 8.7811430732449 3.966694210548 8.4376668443891 9.8604048828801 11.189540114221 10.110815329411 10.44504891078 10.326924495471 9.404511096067 12.813951505331 9.0398241588089 9.3358325108423 6.7694485743043 8.8041356058643 9.5860833080725 7.3708111220565 8.2965381933013 10.232047308573 9.1812531245993 6.9136581765331 9.9980483488892 8.82863088705 7.9948688626281 5.3897608886311 6.6370035009091 10.355940964467 5.8472191332095 8.3853940385641 4.4356702590455 7.7226716344609 7.4569157182838 6.6191527508131 7.0934846760573 7.2293079830761 9.1556234571235 8.0923671715159 6.9267210771434 5.731886991106 8.0143325942247 6.5924667112182 7.9012606182089 4.4149388620849 9.9086634649019 8.9403705792858 6.7486745784012 9.1555056440786 7.9044418824775 11.307506831191 10.449759850878 13.657189703716 12.59314915248 7.0073209466233 6.3104790599494 12.768508543947 7.2964788587208 13.226652716475 10.670065541112 8.4455677926872 10.720406986722 9.9341760180407 6.7604297680486 15.158699971132 8.4443344009073 10.466070607119 10.713717420424 8.1032936723961 5.4564064285413 9.3271682577463 7.3595923026997 10.621657801816 11.195020126092 6.5412746926453 9.6299064802475 13.334782144898 12.767883259251 8.3229298268588 12.262339681233 7.7780720329916 8.2677107137587 9.2531692382765 11.15118578295 11.177772365838 10.716853944756 10.525834473511 9.1982508921277 10.02506121605 8.6477149933397 8.6042697739895 10.134916217906 6.5901236980108 5.3794941348241 9.8559131255445 9.4257933848603 8.7613827693738 11.089420898007 7.3362480266892 10.204008142974 10.349285305176 7.4231373912676 9.9433450098172 10.849518896438 9.7794344418338 9.4761269353631 9.0814368167485 9.2320949537731 7.4737617812645 10.647160730669 8.8018712599802 6.5464132824816 9.0832307317202 9.1175581517543 7.2053506073156 6.8757529246532 10.259788584564 11.300115177342 9.1236935273159 9.6077918590862 11.879325391297 8.8112456925982 6.0620359225449 8.9989866046821 7.4758075839093 13.318789579695 12.234263532324 8.2224937684104 11.787466801562 8.2577528362092 10.100996720777 11.290178749753 21.224671831944 16.089036581481 8.4488738951658 5.8209769588673 9.0414621571508 7.1670844720366 9.8414071395687 10.311329529688 6.9260586118145 9.3358439662126 12.7477623104 13.576553092302 11.417294916388 6.9223550352646 6.7914305869856 7.7894554039499 10.882159192835 9.3812195289024 7.3082162032588 11.113198490145 9.9587904295619 8.0766784979887 5.3240210602163 7.5217170997761 11.029953792547 12.392872121749 13.144062466909 8.4682386585296 5.3611665499321 6.4170995918538 9.8871271304752 13.714415078833 10.911826002965 8.7949798719121 9.8848647793717 11.549577771497 11.339219719153 10.122588565595 10.781894315763 7.0408574853855 6.9535352988326 11.621290445365 10.53625634042 11.176645042452 9.6132109995915 7.0486982560588 7.7595560469917 5.7560569348125 10.672811325134 5.1848265432061 9.9043804999792 10.805093877994 5.2246836645393 12.004079188113 9.1791793864128 8.9929422313676 10.680731197097 9.1486738007425 7.9604272239527 8.0004788880005 9.7446723067601 7.1865088600442 8.8326509347654 10.182306132043 8.3927240028312 9.7421827588104 9.7250983800962 11.979868044119 9.102737055733 7.2441185882192 6.9114089868679 6.813056545849 4.6701569674557 8.3404981752023 5.4861880000412 9.0447401675018 11.401893246491 8.9460115361923 11.400371613507 10.758564521674 13.111957439837 10.323688891925 9.9106215786097 15.12539722833 8.1721929097707 9.8707101529574 8.7901524267701 4.9271511863552 10.179253983172 10.148541805018 7.6157907355765 9.9167343383078 8.7222671899003 6.3951141418031 10.181197169136 8.4132386916153 6.6439057646189 6.3826285137481 10.405804010973 7.6393113480044 7.6592350574704 9.1140173612648 6.502321637491 8.0791913636488 7.6791299219878 7.2443851669386 6.630025422223 7.7735808400312 6.0249485619025 9.5928163832181 12.125103180818 6.5497814634684 9.3113412166449 9.4105502749494 8.6268370714374 6.8726453418004 7.855313415055 7.7831222202072 9.1199277669499 8.3391401813627 6.8672673263623 11.909971509375 7.6112635784908 9.1203277656862 7.282022750712 6.7863172762029 7.9355583601734 10.972408694973 7.830734525517 7.3661063382057 10.28350470781 10.903527778415 6.8836320162994 7.9256093547436 9.7895274116264 9.0297245966285 8.1310537955428 10.03089330504 10.322439790177 10.372870981069 6.7063727448255 10.43454332465 9.3072194960887 10.766071867067 9.5442183429602 8.882079910619 8.3128593856502 8.3889527198348 7.5471037997546 10.559960616631 8.8806070732956 13.538234349993 7.8908808662522 11.305873519922 14.4349672794 8.9174358594284 5.9937048230712 9.3419032124727 10.531824033644 10.037044209993 5.6699976885506 7.9740539549678 8.2508155569831 10.50891743053 8.2232633400055 9.6434671356327 9.5102825322802 9.2664190539056 7.2052566932767 7.6299711718965 9.42104670227 7.9646992854343 11.090794057944 7.5193969688386 7.1102334102902 9.701769012915 10.330847499969 12.323950120137 7.293475900901 6.7575440422288 8.5757771020775 10.418748448187 10.369957385024 7.2501891258446 6.1189586710555 4.4917628010448 7.6875882146145 7.4405138601075 7.6871963505577 10.901423038114 8.4690553268401 9.4397023079879 7.9939645220646 10.730878692739 8.4634235298266 9.3419593440626 4.6017176713245 4.9674065311807 11.530313475443 9.4784024406384 10.866423636377 10.394747808294 12.958180162891 14.694975450327 10.104397004034 6.1913273396482 8.9109217023811 6.4760703143921 8.0495965201722 5.2944717453993 6.2227898644538 6.1127725520961 5.8209659824201 7.2627616041192 6.7563231894546 7.614134251636 6.8745398043132 4.9641571601822 7.2334491803365 7.7412748388202 8.7123401606017 6.3573693323406 5.7029854768683 4.9195159802874 7.2441382722972 9.9223250898528 9.8187372936421 6.8902665095278 6.1841957167349 5.4560659158995 6.6941593061848 7.7218578678591 6.5510250591098 10.988641366 10.598886036676 5.5251471563025 4.8921799114625 6.4195371190157 9.0878450751974 8.2313241926018 10.025901455045 11.766539134161 8.128194168775 9.8068715145545 6.9722423594916 10.742814087939 8.8502585903875 7.8242956162829 5.1348000654383 8.9894344229868 7.5523108490383 8.2010783674144 6.1483315291122 9.0895887478595 7.8566238295765 9.3801543329884 11.14682990988 12.089848155776 10.082381057607 6.670297887239 5.4001223134206 12.202580413474 5.4877391177237 10.656387396629 10.150345686058 7.4312862969058 12.980835787482 8.2998335016105 7.8534539469321 7.2549391120328 9.2405852338927 6.8724423716296 5.9431945594461 6.8276731950955 4.9498785161309 6.3775759012594 6.3717428197984 11.029638843357 9.6406278643866 6.437127641016 7.7286177378096 7.0379323165886 5.6446428880893 6.7684271522254 8.4181509699393 7.2559493590175 7.9227740790714 10.330450892247 9.6374247110425 7.4448866484426 7.4370459106683 8.3492689701924 4.9244130337313 6.8060042944804 4.8445553882451 7.2751412889796 5.0780286898738 6.7152526344466 10.362540564217 9.828485900461 4.9554842720024 7.9946094177492 4.098623527905 9.4930895679816 6.4084181852798 7.2585472757488 10.396521140813 10.514257538965 9.9904358109154 6.3451055831093 5.367108389834 3.9173526298408 6.6714082491594 9.7049807790044 7.7019199420668 7.8145334341065 7.1104851493736 7.5119810177817 7.687241974831 6.8982470967696 6.7783585205636 4.5003770126821 5.6600717734291 6.3823944787095 5.1322670753082 4.5683051854512 5.2343999808366 8.2336014792036 6.3381861543373 4.5225271576603 4.1009630225687 9.7819919020443 7.4011427531054 6.5965801460291 5.9891596139541 5.0342248025205 5.8225212406299 4.8351881796921 4.9329659675514 10.679981184571 8.1637759269644 6.8502308755021 7.6740114701012 9.9629466501427 7.535296708939 7.7416382913708 4.1951038092 8.8027342042459 9.4752585673254 10.349126779583 6.1511826126138 5.3709315619373 4.4609513081756 3.605864645324 6.2125282661058 7.3468263192279 5.978543573603 6.3909271842521 4.7095390031225 5.7044471303626 8.2497192118412 9.9272973661168 5.0807230345604 9.3313238240939 9.9299096929742 3.8238440235613 8.5971920859338 12.761912448738 10.66746374395 4.7616652972108 8.3413026728882 6.7598684453052 5.7994793058119 5.3477996163842 4.546826737802 10.176393854217 10.212032120366 4.3724398993155 8.4867449001957 6.4184017187807 5.2237878026508 5.2500281602573 4.1152359133186 9.6051612226733 8.7817684642816 8.0736207649758 6.114816564449 7.5556877288289 8.0242314461446 7.3362391360934 5.8201715310014 7.482290083374 10.082767766001 9.3293800098825 4.7680497423338 3.5231525622516 7.0783419517496 5.677253916548 7.4199087615599 9.7627151058141 4.9386877467512 8.7638345418536 3.482328204074 5.2179036645665 3.4246619774416 4.0237207824347 8.5931702541776 4.9524162955943 7.54085628014 5.0937020017055 7.3471867318058 7.028158390334 5.7302904090934 7.1352951467952 4.8440770184438 5.5004423434336 5.7302706349514 5.2693637020281 7.1813016392801 5.3877450864962 6.5084564548555 9.4269892183304 5.0259485527816 4.3898201010674 6.1774058256009 5.7600223801205 10.485035193006 5.0922577904891 7.810012839804 7.0147334771042 9.0559653669131 8.845962194438 5.0414606264603 3.3979396480124 7.9868347505284 6.6345493674653 6.0541815028395 6.1324637719896 10.785906930461 7.0189382690996 4.9118959936659 7.163587492096 10.420474309085 8.1752075101585 8.3553649845601 7.1624489042404 8.5771884245331 6.8554429178812 3.6632181565913 6.9562256504785 3.8846612405513 7.9562144977608 6.747431050252 7.1916459610415 5.5672955735984 6.4461473687267 6.8376108108608 6.6260919445869 6.5476296160659 5.2158577645812 4.2577042596542 3.6368814644813 4.5675099227419 6.0761180593389 9.365743378039 6.7897965442132 5.9769278332804 5.7237292652287 4.6840804157644 10.185922742678 4.656926483973 10.960604067269 7.0788035642517 3.6574929656119 8.2980797087961 8.8359947248066 6.1506966550207 8.4659135572449 7.0683496471646 5.1748598124559 5.4477923981266 4.6747827444973 7.3799281045903 6.923347464248 3.6708687415527 4.4285251550588 3.8721712936238 4.8695655373836 4.2588349237439 9.3395274454653 4.634335127866 8.2605906684847 4.3342260940075 4.5764134786834 4.2935727313211 6.7827414923348 4.0292655264967 3.952370507946 6.1044520511864 4.1500328717951 3.495484396276 5.3510567393995 10.163796305138 8.2363153552536 6.6276902352378 3.9675724050239 4.2675804804721 4.3749729367309 7.4805296071688 6.9140438334912 6.9464641594088 5.8918731001015 8.7802784803034 7.785192206074 4.7153272355796 8.1563070652295 5.020943041806 7.8351287498134 5.2244175887642 7.2983144773803 8.331141731392 6.2691149803133 7.5390297052879 7.0416999856581 7.5407162473592 8.0629081839084 8.3543475476904 6.7032568272795 7.7060798949392 3.8704878065024 5.2034324465064 7.2690033956762 4.113232940156 9.3053748495757 6.580941780214 5.4895254364166 5.6556081313489 5.3802601924361 4.5661921324698 4.6177574334779 4.4567532259557 4.3150391854422 4.4154290845918 9.8870554158231 7.4673381565685 9.5697382493124 10.915168352795 4.160082487819 3.4300650040595 4.6403563991977 4.8371073398603 5.1796888423422 5.0498568460867 5.0130866514259 4.8788396352963 5.9451475481082 5.648131813481 5.8733034675048 5.5657379470372 6.0458525738312 5.8319650021053 5.3653668606046 4.7120218952099 7.3570079913451 7.1737871234184 4.1174382701586 3.2285961755763 3.4027764969735 3.8030580698448 3.6283077184793 6.3005210397496 4.9577233188862 6.0094861383243 6.0365051223586 16.148433631004 14.375039119097 3.4467225845471 4.1306757247784 6.9850507898286 5.2031134292831 3.2530558369148 3.5233780043533 4.5725300865326 6.5196886517339 8.6246088749232 5.6781167462675 7.0975895480423 4.4773207297679 4.7530629620126 8.4512820448405 4.5528270715468 6.531400704353 8.6544300299178 4.2025677282765 3.7940038047916 6.9013706217133 7.2071080916229 4.5845372331476 3.9456697694499 4.0057179099098 5.5699008769205 3.8072969194136 4.375453639078 3.4351843460945 3.3703944174933 3.8805314789108 9.2416329269232 4.0468314982631 5.2462912275135 4.0558703810196 5.0513000962153 3.7490364033089 4.5983819135141 7.5374761833845 3.3648509773825 5.7074830212238 3.3201534399929 3.5870150444635 4.7351267919372 3.6095924210766 3.5950931165549 3.4475136342074 4.0253581364685 3.6912758614826 4.0406209586525 3.5436584251238 6.4085216735553 4.5226720534236 3.4315158199819 3.8932952409351 4.4432208554802 4.2552619513752 6.2651977748867 6.2864718061019 7.1144449253027 6.5992678392349 5.7876703245387 6.2695006887118 5.2610319925909 5.7420912627583 6.6791941963782 6.2855214729912 4.9738635398402 5.4481969479209 5.3542363804088 6.7940996507844 6.0408396106089 3.2719180593987 4.0413343609056 4.9505304612916 4.0790828342428 3.9214886780825 3.6066692891422 3.7804264810044 3.2739794886797 3.9786401514076 3.6189986003896 3.9389318448192 4.1909701421518 10.862663514859 3.8805962479039 4.7549387745162 4.4676204387275 9.1648705759907 7.2487088900819 3.5553801284701 3.4913676221801 3.3911825619629 4.1455242619271 4.5486061273845 17.535005185911 3.4931826487733 3.6450074340113 3.9421971170779 3.333576901086 4.222184270139 4.8910358406441 4.4602394154444 4.3088559019247 3.4784120427129 4.3024792827446 3.7424100410944 3.308479833674 3.8727231200471 3.3127858233416 3.3209671138691 4.0907947198174 4.0170720237051 3.3636685173072 3.4386415571709 3.0468917479786 3.1989719768278 3.0630646041621 3.3129414422571 3.484855806193 3.9165134280745 3.9179989857158 4.8100261704793 4.8767254092625 3.4271630301659 3.3363993066561 3.3251808525452 3.9217977270458 3.3622252988368 3.2647989758166 3.4164402874881 3.3950657078999 3.3362445939032 3.4289481711987 3.2003694961826 3.9031737672241 3.2609148533932 3.4533106273646 3.7916651986891 3.6799849180564 3.302384898524 3.2677517595895 3.4387574014188 3.3874654187802 3.0964277344611 3.061473309678 3.2618492094104 3.2517029317789 3.1415513132284 3.3102156354529 3.5743690546943 3.3489899243948 3.4604723692794 3.3350349175221 3.9801527928541 3.3371783208893 3.3785969354377 3.0729394642581 3.193644816816 3.3204737791772 3.1990951868229 3.3881231558798 3.2651086762896 3.390862955988 3.8782810984643 3.2861615361928 3.6195176979491 3.3299028876691 3.3401462189224 3.3248298031337 4.1623356076144 3.4586436810104 3.3721191742186 3.3017077074413 3.9663193151756 3.4891148598833 4.4090103752792 3.6215508896099 3.400964625503 3.5555886897079 3.5321573535738 3.1884940574228 3.548757936538 3.7719300092852 3.5748797529093 3.56323175191 3.5223637262617 3.4413498616989 3.8231262155342 3.3548541955464 3.7428798422576 4.3914213749189 4.0018690562208 3.7909265893383 3.4017396010906 3.949785181035 3.3490577907236 3.683971890019 3.3891030176398 3.9267200146211 3.631026899832 3.9291486524174 4.1270113396651 3.5471038148 4.0792099008683 3.7444384726579 3.7101408762137 3.7683983391517 3.8586619191927 4.0247481341269 4.0036986851697 4.3152305926644 3.5690841316285 3.6473637656167 3.4306477656502 3.4343006871769 3.6292271135642 4.0195051672402 4.095367856143 3.9674025932408 3.5780082705133 3.933961869565 4.1122636065877 4.0853854282041 4.5335338320312 4.1763495022837 3.626816253621 3.6512712504344 3.5571439781706 3.7422181205153 3.8814135239215 3.4584589369445 3.8461117221746 3.9715215774486 3.6012149219327 3.7554373923671 3.5942642958927 3.9124035674054 3.9368290283606 4.0350351103 3.891440272258 4.289655933788 4.2045815710571 4.0989017287038 4.0645826815995 4.0239719359623 4.1759316291156 4.1894801625748 4.1886361054254 4.1532660686937 4.0587307226147 3.6415931828246 4.4680110773655 4.1927046659598 3.8658412215751 3.9982328092176 4.1826232463736 4.1863616705031 3.8741534962636 4.0247953262405 4.3084402750031 4.3733466896654 4.529314453184 4.5057236108785 4.3578461902626 4.5969680244926 4.5528162433022 
SCALARS 20.00_0.06 double 1
LOOKUP_TABLE default