# vtk DataFile Version 3.0
d-2__ created by libgimli-v1.0.12
ASCII
DATASET UNSTRUCTURED_GRID
POINTS 1303 double
5.625	0	0
5.511811217919	-0.146388704457	0
5.676386535709	-0.13519637448	0
0.25	0	0
0.175228502521	-0.179050409113	0
0.326009290428	-0.144330725415	0
0.375	0	0
0.990207725992	-0.114957291708	0
0.841075314552	-0.137634199948	0
0.926498288371	-0.349340723189	0
-0.001071200562	-0.386156929004	0
-0.003317641763	-0.130454088023	0
-0.192720422374	-0.216308252768	0
1.25	0	0
1.175215748534	-0.200562384647	0
1.341115762259	-0.128605193971	0
1.375	0	0
2.25	0	0
2.168494514827	-0.19848886597	0
2.338304607341	-0.128945294536	0
2.375	0	0
1.911268305082	-0.334701951691	0
1.986191885908	-0.110806668109	0
1.838390258011	-0.128853462534	0
1.75	0	0
1.670105949089	-0.197137117999	0
2.986685504441	-0.10889534818	0
2.838723720416	-0.127406828384	0
2.912854264006	-0.329775839393	0
0.75	0	0
0.664572693147	-0.222613872306	0
3.25	0	0
3.168798596028	-0.193682232199	0
3.337828500197	-0.125181208794	0
2.875	0	0
2.75	0	0
4.25	0	0
4.161099470995	-0.193412132741	0
4.332718836325	-0.127723897736	0
3.83511440706	-0.12403687807	0
3.875	0	0
3.75	0	0
3.901908238995	-0.321557035295	0
3.983050435256	-0.106770030737	0
3.665527023987	-0.190866765849	0
5.25	0	0
5.164693411436	-0.21656556845	0
5.338419985376	-0.147288917438	0
4.834321952324	-0.135810575609	0
4.875	0	0
4.75	0	0
6.25	0	0
6.178399669611	-0.137425451145	0
6.356205370496	-0.193853696818	0
5.817814980918	-0.161175429964	0
5.875	0	0
5.75	0	0
6.611939839541	-0.314381537706	0
6.522886280605	-0.104721203126	0
6.75	0	0
6.669178832877	-0.119404962711	0
6.836073690852	-0.177498311423	0
5.39059629209	-0.37339102075	0
4.660917359886	-0.204007052252	0
4.902096977384	-0.356327271651	0
14.897042426984	-0.319128540459	0
14.98121339776	-0.105010975498	0
14.832720105416	-0.123004000492	0
2.669265824618	-0.196872625129	0
7.656019919505	-0.144451020927	0
7.75	0	0
7.625	0	0
6.625	0	0
8.75	0	0
8.672937461928	-0.164309120831	0
8.834289374889	-0.109279841483	0
8.206809119751	-0.294811800109	0
8.187056112549	-0.110869448227	0
8.024316200302	-0.129362764133	0
7.157390904024	-0.111206354394	0
7.25	0	0
7.125	0	0
8.25	0	0
8.125	0	0
9.75	0	0
9.651145885459	-0.185384966231	0
9.827054067621	-0.122428024454	0
9.381816956327	-0.305807769915	0
9.476753337472	-0.101567493772	0
9.327490061855	-0.116748040282	0
10.75	0	0
10.655660803951	-0.196164841752	0
10.830485405183	-0.127989131147	0
10.386748323888	-0.329675548046	0
10.478464938155	-0.108955040137	0
10.328560245085	-0.126395562242	0
9.25	0	0
9.375	0	0
10.25	0	0
10.15270392044	-0.192469144253	0
8.328856990144	-0.128933011689	0
8.375	0	0
9.153857570119	-0.175508527296	0
11.75	0	0
11.660624577581	-0.201812344528	0
11.833823570609	-0.131890823957	0
11.395399221028	-0.337817920558	0
11.481219500696	-0.111845889235	0
11.331881500183	-0.129806070652	0
12.75	0	0
12.669299873111	-0.199190799603	0
12.839534650452	-0.128328673855	0
12.40897914742	-0.340185307353	0
12.485654611126	-0.112072117633	0
12.336727606385	-0.131188239877	0
11.875	0	0
12.25	0	0
12.164627546098	-0.202605127067	0
13.75	0	0
13.669268468008	-0.186168180444	0
13.837322273199	-0.120178339978	0
13.416957459915	-0.319650485848	0
13.487510959619	-0.105281058988	0
13.34010202956	-0.123833443479	0
14.75	0	0
14.66080663422	-0.189613659871	0
14.399926333663	-0.319306441484	0
14.4823067449	-0.105599641009	0
14.334114343934	-0.12250571155	0
14.875	0	0
15.25	0	0
15.158227025815	-0.185762723401	0
15.330441202311	-0.11956675178	0
13.875	0	0
14.25	0	0
14.163960939829	-0.186365139356	0
12.875	0	0
13.25	0	0
13.171786689458	-0.193064330135	0
10.875	0	0
11.25	0	0
11.158129238503	-0.198418008741	0
7.31587636932	-0.171642077952	0
15.3902841013	-0.308450173235	0
15.478958243586	-0.102394874489	0
-0.125	0	0
0.125	0	0
0	0	0
-1	0	0
-0.706889652808	-0.331752981492	0
-0.5	0	0
1.125	0	0
1	0	0
1.625	0	0
2.125	0	0
2	0	0
1.5	0	0
1.488007132967	-0.109900770852	0
0.5	0	0
0.474245721096	-0.130043839003	0
0.625	0	0
3.125	0	0
3	0	0
3.625	0	0
4.125	0	0
4	0	0
3.5	0	0
3.485533411273	-0.107014956798	0
5.67736414417	-0.368119689468	0
5.125	0	0
5	0	0
4.98353533542	-0.118243061674	0
6.125	0	0
6	0	0
6.009467825362	-0.139471566496	0
6.5	0	0
4.625	0	0
5.5	0	0
4.5	0	0
4.481603306259	-0.111052305129	0
2.5	0	0
2.486482293556	-0.110456056597	0
2.625	0	0
7.828740664136	-0.157959666613	0
7.5	0	0
7.497789303332	-0.098817221798	0
8.625	0	0
8.5	0	0
8.493725508365	-0.094448160765	0
8	0	0
10.625	0	0
9.625	0	0
9.5	0	0
9.125	0	0
10.5	0	0
10	0	0
9.976983002093	-0.106037154081	0
10.125	0	0
9	0	0
8.980258705317	-0.095443922293	0
12.625	0	0
11.625	0	0
11.5	0	0
13.625	0	0
12.5	0	0
12	0	0
11.983083448534	-0.113269018621	0
12.125	0	0
15.125	0	0
13.5	0	0
13.125	0	0
14.625	0	0
14.5	0	0
15	0	0
11.125	0	0
14	0	0
13.984735949845	-0.103165953766	0
14.125	0	0
13	0	0
12.987740386932	-0.109238757727	0
11	0	0
10.980033547654	-0.110118532971	0
7	0	0
7.012790729926	-0.096165366155	0
15.625	0	0
15.653391866104	-0.184257106926	0
15.75	0	0
16.25	0	0
16.151956269841	-0.190746813766	0
16.328162175541	-0.125534698515	0
15.827345422636	-0.12109528269	0
15.881623705918	-0.315197408181	0
15.9768075603	-0.104841845177	0
17.25	0	0
17.155473725888	-0.187015736188	0
17.328334720487	-0.12053442359	0
17.375	0	0
16.97978281674	-0.105790715925	0
16.830585534618	-0.124270763258	0
16.892220832712	-0.321708894118	0
16.75	0	0
16.655725821363	-0.19281499559	0
18.25	0	0
18.144056513649	-0.199584109463	0
18.322695877645	-0.133173012767	0
18.375	0	0
19.25	0	0
19.156955168382	-0.212194778097	0
19.332395147696	-0.137501625504	0
19.375	0	0
18.978107771567	-0.118463258117	0
18.827251646435	-0.137822523984	0
18.884674261801	-0.359498065923	0
18.75	0	0
18.648603260315	-0.210400354993	0
17.973004229039	-0.108213471414	0
17.823362138939	-0.124125311933	0
17.87020700187	-0.324156104502	0
17.75	0	0
17.64837652944	-0.187413016584	0
20.25	0	0
20.167288289523	-0.206556633625	0
20.33799343326	-0.133667464393	0
20.375	0	0
21.25	0	0
21.172020853715	-0.201327641466	0
21.340729826518	-0.130206344264	0
20.875	0	0
20.75	0	0
20.839555732676	-0.132066213667	0
20.987710400762	-0.112937783384	0
20.915843633601	-0.342386775443	0
20.669904108595	-0.203936882105	0
22.25	0	0
22.168893714495	-0.194483818359	0
22.337089427477	-0.126591453251	0
21.875	0	0
21.75	0	0
21.840184239699	-0.127666317168	0
23.25	0	0
23.162361450448	-0.215073727418	0
23.335945395372	-0.148199257458	0
22.875	0	0
22.75	0	0
22.83504078106	-0.133126573368	0
27.412614995451	-0.337768305098	0
27.406417478875	-0.760610856776	0
27.663031754041	-0.476449210851	0
23.674319496044	-0.139602731619	0
23.75	0	0
23.625	0	0
22.902876337082	-0.348446434986	0
22.664415839639	-0.19979598046	0
21.987454968006	-0.109075483352	0
21.916658702332	-0.330379709848	0
21.67241042914	-0.19774510361	0
19.984830323221	-0.115851903278	0
19.835879034474	-0.135573032779	0
19.906686139011	-0.351521653308	0
19.75	0	0
19.663378765328	-0.209646647928	0
24.75	0	0
24.672305039303	-0.121865624882	0
24.84054616259	-0.178479133746	0
24.25	0	0
24.125	0	0
24.179559510218	-0.145425217914	0
25.656694723316	-0.141492417978	0
25.75	0	0
25.625	0	0
25.25	0	0
25.125	0	0
25.159224348757	-0.109007087058	0
22.647257188685	-0.476376729768	0
22.872248033711	-0.780455516934	0
25.317652966423	-0.167196322239	0
31.908525182248	-0.237434634112	0
32.248547795208	-0.367887731521	0
32.025	0	0
26.398062594932	-0.327144710524	0
26.335089901602	-0.124890632532	0
26.169730315141	-0.188549564961	0
26.75	0	0
26.662500836065	-0.197477656933	0
26.835401004001	-0.129534360312	0
26.375	0	0
26.25	0	0
27.486869476066	-0.111474770432	0
27.338367230812	-0.130187170762	0
23.816158307302	-0.168335740772	0
23.875	0	0
24.625	0	0
27.75	0	0
27.67023663024	-0.198727549038	0
27.839431305592	-0.128541986375	0
27.375	0	0
27.25	0	0
28.75	0	0
28.666013303123	-0.192953151514	0
28.835335299513	-0.125393524551	0
28.875	0	0
28.41074998604	-0.32692743598	0
28.485854239984	-0.108071323096	0
28.338261561589	-0.126341817439	0
28.25	0	0
28.169650699531	-0.195402875109	0
29.75	0	0
29.656991685033	-0.201213204108	0
29.830700495316	-0.13323291855	0
29.875	0	0
30.75	0	0
30.665605116896	-0.213760177502	0
30.837855425721	-0.139272404211	0
30.875	0	0
30.987248292653	-0.119871959545	0
30.911614165903	-0.362389547989	0
31.25	0	0
31.174363802618	-0.217041176186	0
31.346460135447	-0.143418487957	0
30.400599561582	-0.360265197586	0
30.483280501431	-0.118794220148	0
30.3336351656	-0.137924489201	0
30.25	0	0
30.159375273254	-0.21004086356	0
29.392934647931	-0.331414044449	0
29.48031118177	-0.110263057575	0
29.331777210358	-0.127344913482	0
29.25	0	0
29.160548153072	-0.194064979946	0
27.167334579456	-0.200440763045	0
24.359650796728	-0.20304719459	0
-0.25	0	0
-0.404335947278	-0.221464959739	0
16.125	0	0
16	0	0
17.125	0	0
17	0	0
16.5	0	0
16.478267427857	-0.108008273171	0
16.625	0	0
18.125	0	0
18	0	0
19.125	0	0
19	0	0
18.5	0	0
18.473681471998	-0.115768873419	0
18.625	0	0
17.5	0	0
17.47687846862	-0.103462148239	0
17.625	0	0
20.125	0	0
20	0	0
21.125	0	0
21	0	0
20.5	0	0
20.486446843971	-0.114298370976	0
20.625	0	0
22.125	0	0
22	0	0
23.125	0	0
23	0	0
22.983281399654	-0.116385827149	0
23.5	0	0
23.509214189908	-0.149359691049	0
22.625	0	0
22.5	0	0
22.48467632496	-0.1093719097	0
21.5	0	0
21.488472844532	-0.111208801785	0
21.625	0	0
19.5	0	0
19.482219828947	-0.117572233456	0
19.625	0	0
24.5	0	0
24.525433875838	-0.108080714825	0
25.824234283709	-0.149177038136	0
25.5	0	0
25.498573523516	-0.096586408813	0
25	0	0
25.014769107289	-0.095147895568	0
21.919931345447	-0.741308582321	0
22.160361550711	-0.463896476278	0
26.625	0	0
26.5	0	0
26.482631880244	-0.108512805864	0
27.625	0	0
27.5	0	0
27	0	0
26.984612185119	-0.111680714924	0
27.125	0	0
26.125	0	0
26	0	0
25.990349817319	-0.10847866492	0
28.125	0	0
28.625	0	0
28.5	0	0
30.625	0	0
29.625	0	0
29.5	0	0
29	0	0
28.983089608831	-0.107750428826	0
29.125	0	0
30.125	0	0
30.5	0	0
31.63125	0	0
31.5	0	0
31.494696987447	-0.123712578064	0
23.671261205816	-0.380102168636	0
31	0	0
31.125	0	0
30	0	0
29.980228243528	-0.115525062547	0
28	0	0
[...]
CELL_DATA 2263
SCALARS 200.00_0.64 double 1
LOOKUP_TABLE default
7.8214573706399 6.2369367337642 6.3080756385309 8.76117262466 6.0419993145317 10.1282703878 10.70605104425 11.142492354073 11.255775791431 10.094537700825 8.9576868192299 9.2498359044477 9.5258355229269 13.878765915594 7.0802269339599 25.155680185493 5.1486753506902 7.1238356350343 5.2776534224037 9.1531756125163 10.311844210333 15.92835438154 6.7011717782031 8.7122650461741 5.6052928673943 10.322185210219 7.0413562827257 9.749825024354 9.6320235542357 10.226347659993 7.4238865068646 9.4471411335449 5.3914903979435 7.917172041531 12.531657077621 16.362146034299 12.092395386305 16.475712872704 9.390064536762 18.885083450593 12.30582871456 9.41415027947 12.809623966501 12.041421722213 10.359810612226 14.942686920725 10.108743145165 6.998465958651 10.99815616704 13.263831285016 15.03687000828 13.39547424404 10.021632225297 9.5950879023418 11.104989304609 9.2541190619009 9.08114224677 13.474786060696 10.761775921369 7.6424701678447 7.7262541749482 21.266624473159 6.1060228088683 16.889777357672 8.6797702337398 6.0390806057459 6.0552458028231 5.3158391419 9.7246894739171 9.2061347528591 8.559444903802 10.701711815078 9.1891747153512 10.986629050013 8.3447100479967 6.0746865138971 15.605274043807 12.594749268992 5.4073396704921 12.021435414524 7.3191886606882 24.085757344091 8.5165162725733 9.2202363351613 7.0094745083909 13.68570661572 6.5633081506611 9.168135809454 8.4131089078425 8.9433451664735 11.888612382789 8.6055412023594 9.4801638848758 9.5866627906341 9.8235117651175 11.268502238744 12.121670465891 10.325126292637 12.242453571201 8.2488921152114 16.888696235354 12.79962320051 11.977115133861 14.145472884082 12.579251609102 12.34106371971 11.471035830388 17.109335777437 6.2672897305617 14.739157398514 13.359617516991 7.6746694743415 12.09447103638 14.888440115673 10.05493584522 11.639932318414 7.2893474859991 10.760367690842 10.842947680093 5.9081106200758 12.298249183985 10.991240211319 7.8442576776595 9.8688071369484 9.4341947795744 18.72622708932 11.785184780419 7.6168205011394 11.278355177357 9.9786009807295 10.547768442965 8.2399713220034 8.2004952538682 15.578300782752 21.45985726061 7.0593804989621 7.0776904101928 8.8800627304315 9.4764041257214 11.574291626718 12.756465580083 10.941446537182 13.758222559793 10.485497996115 9.9289453900922 7.3350623812416 16.942460226397 12.253599261326 17.195031734284 14.321270641259 10.736850791277 10.078537402708 11.395960555137 7.3087860193021 12.072699929077 10.533859337229 11.041727188228 10.83267180568 10.753140751921 9.7096823431006 7.2849590828538 12.525643541606 6.2151629536109 10.77941116166 13.025562858602 7.7890737162488 13.014590787877 5.6902653646965 10.442350623682 8.0175953367896 11.755220647902 7.4426093337305 11.737134788613 12.797932663619 11.551029024005 10.265456051113 5.9209061297026 9.1974083884305 9.3931774425527 13.309655382021 16.264091491398 10.030962829059 10.004710596999 9.7574416892208 9.3391309770253 7.8111519635524 5.8983839174573 7.4514003775828 6.149876635796 9.9803590899305 10.26049899188 6.0875636090526 6.2183367610658 5.6939830544995 11.013038295835 10.368381307256 11.33205608845 14.848892135574 11.195444613958 21.353378616318 8.9347533371339 8.1428025923046 9.4364344760879 8.9815256662946 7.2015665250034 11.773398644034 8.3082337753834 14.142063861525 10.927557049735 7.2875309698566 9.4531728375909 15.080663043938 11.199766990082 14.668318031301 13.139825004343 11.807265129106 10.981299087192 11.963284661193 10.942699053713 11.902940837821 10.112454305282 10.036655123309 18.691891845132 8.4775000777442 11.649647265334 7.0482539595238 10.765824979631 10.50270944456 11.885595399961 12.711039096644 8.0409179080099 8.0425106007985 9.259633724764 10.738926871471 9.2061525886772 7.1214250480891 11.633851677398 11.210655202259 15.872361375688 11.068879064173 10.549514859269 10.439473469244 10.814978972059 10.326353570228 6.1236531407446 9.2105089871723 6.101935574534 5.7353806981745 10.977390496098 6.9134429279558 10.548213743855 7.4150852197443 6.0640546660412 12.477049385744 8.9968753962595 7.7891685185375 10.915797466018 5.7979128383166 9.8976879599325 6.0841876560296 6.866613216608 7.092931376624 9.1770084975166 10.521122574284 10.924589325447 10.793725490175 8.7396757921947 10.381382123947 8.9465110990332 9.5060735656102 14.565167212737 9.512902552062 17.079577770192 18.597216667221 6.1814369653907 6.9789794482588 8.8787392146815 9.5789829462411 9.861453856976 9.4694006912679 8.1420626409725 8.4090763877858 10.141078737137 8.8545620664041 9.6742706983053 10.749965740464 8.6706154211413 8.7015607165989 11.843760151528 9.4700671637001 8.4659404256469 11.867749021198 11.474943472139 14.564881041369 14.477044716845 14.495052765802 16.582100248652 11.631567291116 14.579846074528 12.495021778482 9.4307704692322 18.349850250408 11.007355307214 6.5469443462003 8.6902631198413 12.347123558763 12.068817283606 12.854895423953 13.13591834699 10.527085705724 9.7189045075686 10.797994050619 8.4359414011391 11.666581296601 10.809376032474 7.7162193080687 9.618923071876 7.4748470031786 8.1536427323615 12.240616894629 14.686353833063 5.5460069302332 10.598596883177 11.122791699705 10.667457654395 10.980988138712 9.3205482974333 9.5378920757106 17.4317475822 16.587308256567 7.7769743616252 7.8440239639133 8.473726560681 10.123634591484 9.9264897475371 12.949025404898 12.981954400673 11.338874473805 11.741918646103 11.18073842564 8.0851869648473 8.6167571770584 16.851093712173 12.743754672676 13.720711746011 13.451127860709 10.503052023939 11.123081218948 10.130913007613 9.8826565467114 11.07272042557 11.716526018958 10.694559712542 11.557877976224 7.9731529320852 8.6286854425664 11.151410117683 12.612813778388 13.033405344411 10.809856135235 10.560005886601 12.794803370711 8.503134525418 7.891256439382 11.265759898458 10.802328885008 10.27054502102 10.667209521043 9.6579219382579 10.39944569379 13.572157243119 14.727496276507 10.326370718929 8.9178646459008 10.138156950603 7.7921653614377 6.3813843835069 5.7460859309102 6.7472174056415 7.1504375480221 10.816612016737 10.182226431845 6.7150984837972 7.0544323100529 9.2193085487681 7.9076177716529 5.7075191456309 5.8720517324848 5.7157257527267 6.1527376871516 5.7283558028064 7.8651483158077 9.7249242271567 10.120063966327 9.2931188123056 13.049395809362 8.5154193936985 9.8700330551618 7.6762298185861 6.9410774525472 9.6346361329638 27.132705041063 9.5121789407546 9.4274601367191 11.265788401224 9.7040596863125 9.21010411716 17.425333335683 10.05716175753 8.1309776929696 9.8945069149014 10.239575716826 10.247906483888 6.1241481513743 10.421954362965 16.678655068279 10.578902575967 11.037424504484 11.404739401886 7.4111865927264 11.500154582695 16.908244125058 11.185404437575 12.195854217786 8.7720151964442 10.775251478447 13.811529256474 11.10651043786 10.468280996289 12.406303723901 12.446259092828 9.3511713529015 5.7450026742315 7.7386067062518 16.379541888951 11.537937563629 13.827610003263 10.148337575871 7.8455392734597 10.695116275933 10.598649417695 8.4530165498754 11.097963723075 11.312047873036 11.636161041943 12.982978655902 8.3922999139209 8.6769012971374 12.15342626367 16.82379751367 6.8750051802981 11.175173275313 9.7467792929303 9.7481969907346 9.2291904230507 12.426115165882 22.424872761539 7.6629425311866 10.310506610323 10.537767682655 13.822761276423 9.3112111043047 14.211862522651 10.690119170852 8.8574710212799 7.4731543729388 11.637261084988 9.4345775687543 7.0804784911485 7.3612948180136 8.3659677818269 14.597827598504 11.171923556838 11.126498465257 9.6459796775377 10.155810044404 10.224735210554 8.6949037199883 10.952658958071 11.560795944994 11.386258882491 12.229864300796 9.6800765539365 8.6469177317273 9.9624678696002 10.290788691411 10.518593816566 10.464305511609 8.8052698103155 8.0372768191821 8.9737429448716 8.2822515139016 9.3156417514679 10.137322692829 11.967203078782 11.804991883751 8.1386599848888 9.423234458943 17.346848788852 8.766588067687 8.7106900452199 9.7396475789445 10.119063684497 8.0035337763998 6.031799370243 5.8127632979332 8.6104671565123 5.6967956817737 9.8079968512158 8.9672672265428 10.995443297351 10.194544005652 10.382724075752 8.1518126440862 9.9908821559144 7.6871516739493 5.4591738173274 5.4331994118158 6.3459086484088 5.9678102804619 6.5671121125665 6.6326527371128 9.5109267617644 10.700641617248 11.023213863521 11.262769321204 9.5045535345583 9.8378687211578 8.5666356842137 9.4933205284056 10.844248705832 11.293377422363 17.396367115651 22.772589165068 6.2283985414325 5.7308268177536 7.2006425589917 9.8928553634828 10.460917777464 14.776996465085 7.1045170519843 5.8268461514446 12.872716501912 7.4845533877886 9.3345746219433 10.718512222073 8.7399030371188 7.677666929402 14.350117033193 11.192203683623 10.66240770094 7.8504048252852 11.88571761793 12.09159228124 12.481087449645 15.26140676661 16.281743561516 20.137840128746 11.380259624696 13.907526670065 9.582652087667 9.0096848001446 11.208252148127 11.467321715091 7.9969947119678 8.3781804098861 11.065204137793 14.40503575251 12.896420778624 13.387278991096 10.186726418826 9.4856677756384 8.871825672601 8.2726024448779 11.051256393581 10.774517286128 9.3146501654739 8.6660551736854 9.3119583872039 6.8309973823096 10.376173674835 18.036951854997 10.319953237763 11.111813518734 9.9578105923505 9.9855219136335 8.9965865428336 8.7216256974385 16.228355834344 19.638692024061 7.2140636572464 7.3298747107565 9.7715599870416 10.143803621119 10.984959508121 13.797840921326 11.492515937349 12.613169914028 10.714411136623 10.204186495079 8.1180760436528 7.9068106116921 13.068361087431 14.864576083131 12.161886477044 13.922696636604 9.1454670516389 10.510883976431 7.4400621535513 11.048926297682 9.1933912210848 11.569788824233 10.358288292916 10.888042560787 9.2975438995831 7.883993231064 6.9128308659743 12.732245461756 10.855676098192 10.50420758984 7.7451220712574 13.358426014712 9.2567551722606 8.1149986828521 7.9693660280359 11.369025025278 9.3670033150199 10.027225924936 9.7231597887062 9.9107552186806 13.120491049627 16.171600745613 9.2238929907302 9.5921651923773 8.3996550961854 8.5341146662758 5.8828025234425 5.7795666963446 7.1001408997019 6.5090173617686 9.9593989370872 10.097499852467 7.0782331060106 6.38531205887 8.3321368691164 6.102444258487 5.6076272724808 9.2895028537884 7.5578471684197 10.253683314007 10.263186567495 7.5938142012229 8.5029398859784 8.8390379449329 6.7425094335432 7.1222444595726 9.378907728966 11.670709248329 10.957003321943 7.5711522403777 9.318666993917 6.7438576827851 11.45456954495 11.330116985929 10.341207700334 13.495456151213 10.030676473835 16.465643037462 6.5651154566121 12.273656144516 12.471213867791 12.934219024832 9.1914871953069 9.7763109721302 7.7136668144878 9.4813704080318 9.98577409201 10.525905006152 9.4963913996501 10.838215758857 9.5412078307005 12.931167904335 11.855662238576 9.250785554741 9.1391915375184 8.5612843560564 9.3562390246998 8.2870097088633 7.4731457247095 8.9357150777147 7.9141490595548 12.336275990801 6.526520205943 7.3327269334817 10.492270001556 10.622629967697 9.5214073374783 8.7783950919803 9.1877081882309 9.3190412941872 10.055873344944 11.366931801519 7.9799256213257 9.6000177247325 10.215279438166 12.288161023388 10.00426467913 11.481856908277 8.4126327717175 9.8108129207787 8.2035029534825 10.666788641446 9.241076639646 8.1084310609405 8.4900108091509 10.838763257893 6.6687127683476 10.072423651376 9.4908949150624 12.653002733243 7.4126980816539 7.6285141708924 8.4684460247581 9.5965583545193 8.8622422277286 9.6235394424253 8.1248011862076 10.927366064151 7.9045622965863 10.241172263467 10.166752149364 7.0655681405684 11.062203912124 5.0108680185561 7.7355477735135 6.6344751416619 6.7792232080178 7.2998451139116 6.7572232592441 9.021478779382 9.0618572439148 10.536877495925 6.8022689823257 9.7663196600415 11.166813567966 8.1301313062391 10.147699973232 9.0502658465295 11.759345085655 10.404945013031 10.235609265594 8.5178556886421 7.5659116451097 10.49963419202 9.2697580548888 7.9864159391147 8.1849438856895 8.9397733650912 7.7072307720306 6.8481563781531 6.9195478924848 5.7592022863697 6.1041716944011 5.6964820823723 7.4099314810346 7.7611919073814 8.2613671607066 9.5388825356216 9.0942484388181 10.1768463232 7.5746065070658 8.4219033900298 5.2758643027714 5.6705543176182 6.5233048187104 6.155990484051 5.8343991485665 7.5020322083091 5.7615627359235 6.2943296945643 5.7564400671459 6.0847992665313 5.8658497020207 5.7185305005654 5.6795450573761 8.9972170354613 5.9765352284061 8.1648976679729 8.8392298984967 7.3543449618572 6.9357592661207 5.8691775541971 6.7123019073896 6.4600285431871 10.815084172952 7.3099404395919 6.652915856819 9.3375809166108 9.7697920115555 10.165486024608 7.3213824069294 9.1015134123272 12.300533139491 5.4303496848957 9.7827965499544 6.493499068001 9.0789184637436 8.6131788720057 8.4600656099822 8.1801093588465 9.0980489370335 5.8153999477709 7.8237763018661 8.5822938218922 6.6406757212476 8.8947909711725 9.8861407712031 10.302193519277 8.4680696209553 11.150377750199 8.0693371244518 11.789665520772 10.739432613029 7.6878281732658 8.835323515818 10.035279682605 6.7056260698859 10.449057908422 9.0320226817322 11.056797067415 9.2974564729698 11.767091600223 10.401093493075 9.8226320382526 9.7951228919371 6.6783059922725 9.2567897816675 11.48967162769 10.320364594024 8.1578709000003 5.8009126629978 5.3253039695873 8.8624126901596 6.3619194357296 9.1582051357562 8.1577074115089 9.2880623870202 8.2381565938864 9.2481880991042 11.672977919946 7.357800563707 8.3233828989176 8.8838500856855 8.2879382531716 9.7940157576771 7.2017968349412 7.8428318549214 9.6773510335716 7.9697091261439 7.8735923275426 6.3187194502602 10.187630032643 9.9622439659385 10.363063631866 7.5409888687409 9.9469503550195 8.1609175545469 9.7727253716245 8.0685003804423 7.7836254379856 10.222169645775 9.1609907048051 7.0423114817706 5.4250304762153 7.8195509964284 10.418661774703 9.8532555949114 7.5868564984307 7.1516348967401 7.616592132829 11.118294584706 9.3873207097847 5.1805707673056 7.835987148547 7.835222266607 5.3132042812409 8.1081423092671 9.5469490098847 6.1045284368725 7.7359797882529 7.9285609128518 7.8447059610449 5.8345474008748 7.5729334450707 7.4662630026619 8.6061626730744 7.5401480784033 9.3804471688304 8.208991186715 7.2189070747875 7.0949535758529 7.763454676206 11.99806228818 12.703022295526 7.3056984182964 7.3514711153442 5.9243117217939 9.1650606116678 5.159419667578 7.8227773806263 13.185282955927 6.2241988871333 5.4631260117835 6.1040975711546 4.9321256160605 5.2803623531021 10.250952137427 6.97318891854 11.016851312122 8.0908894815582 6.545294099874 6.4739154607471 16.01475998568 8.1311578123242 8.0501779993016 10.056236747567 6.5562856097494 7.0326611005338 9.2386354897883 8.083693628381 5.4688534162163 5.4224959628037 6.0522208001119 9.0621072298096 5.066932784038 7.2564867555987 7.1659733222296 7.4119579822947 8.161046751779 11.250444239926 9.5623390850114 5.5052108048241 7.937043001894 6.6368802525837 4.9597221546369 9.9493509893425 7.5714744578505 7.0404513227549 10.239858637863 5.4783425603087 9.3996724850299 4.9333498174452 8.6332614142298 6.2898378273604 8.4800466523091 5.5615763534787 7.6045925585955 5.1279239487113 10.542155585608 4.9861116205586 9.4153537286346 8.1688944181015 4.9457760143426 3.8229205965189 7.0284086123833 7.330596958781 7.8768586042563 6.1195868438223 7.9905395026196 6.5244919887246 8.8684341072503 6.1838167117398 5.464910302687 7.627953752232 6.0972863035149 6.689321973097 5.9696737502166 6.3690735998529 6.4493410033551 5.8869237389161 8.4657669072863 6.265457834736 7.5055271200072 8.6175749448797 6.9178534805324 6.0081334124609 7.5616965366564 5.0032434108846 7.9566254479625 8.2019144517438 7.0615374236055 9.1153897639129 7.5468057193863 4.6142477920852 8.2061167483191 6.0938451255588 8.3063031625043 5.704648860096 9.4918817656835 5.1749528779804 8.7755578228048 8.1896460777417 5.3976962957501 7.3821012596773 7.8658011380206 7.1528125281341 7.2548034583161 6.4944338813065 5.647331197084 6.8686153532679 6.0840354234859 5.7265025782446 8.048057738306 5.2751683484581 7.2647685309129 4.439562105434 8.3840775439242 4.9132609243757 7.5503821876322 6.8989913990997 6.8409261905802 7.3602821561639 12.31685150219 6.5122389277507 8.0365734298327 7.0205354342167 6.2082610202354 4.8570113620791 6.9974256848764 5.2645636475682 4.5474329764975 5.295515458843 4.9328192558693 5.2260767119892 5.5422815068777 5.8659044255534 4.1019727735912 5.2204728742777 5.1148301981348 5.1815634466292 5.6650470267533 5.6660580343527 4.8218350339303 5.1945000534127 5.1286979357792 5.3065240348837 5.1413648030628 4.9127897174806 5.2156234804759 5.6688889739523 5.650622640047 8.6405481927374 6.2140855908324 5.1076438814376 5.1637517490415 5.0893844139902 6.4226553017141 5.3840211193786 7.1444850989422 8.7180154578433 8.3933833085824 8.0108778455478 5.6169610701438 7.1526660321171 6.1371961307279 8.5027267347691 5.8305270130567 5.1442294808806 7.8302034827072 6.0183715186045 5.00645230365 6.4978147477996 7.3477217109001 5.5238031735035 5.4449001700709 6.4118428676151 5.2943786525865 4.388627502137 5.5444843400797 5.1122504099322 4.9391160944442 4.4134555574649 4.3608259529278 5.4546907644384 5.102647517983 4.1555756441202 3.9157635704927 3.7449453833903 4.1594572044804 4.2780458012571 6.6245081545371 7.0108703104196 5.8895954322109 6.6430040464816 10.278920796744 5.0645604710406 5.917089701265 5.3968666210048 7.2139623029314 8.3352165437971 5.1455003307303 5.1386233105308 5.8060691164879 7.5413860628819 5.3797103443072 5.3565843612659 7.2189463094738 5.6155027329338 4.4663008282235 4.8938938946601 5.3423558829963 4.6537123127942 4.0945158909699 4.8926078360417 4.3751435446636 5.901264246639 6.0139325647412 5.5971343448352 4.7937248029347 5.7814038629425 5.6563193207926 5.5614178059232 4.8248873664848 4.9196040366377 5.0758359861609 5.4766586401185 5.1169723865546 3.735400834088 5.7764034514151 5.1465040349339 4.6522474446726 4.363042714805 5.2268304772231 4.3859816192959 4.3154721907848 5.6514186944001 6.3628485540211 6.6068391174122 4.2722531699954 3.8416118015656 4.5230958104926 5.4985855403977 5.3813249157436 5.0474381043063 5.9474769897628 5.0241949056731 5.3021799621165 4.6564908796111 4.5543840672283 4.1967043143129 4.4974513959216 5.5089473571957 4.0467086584407 3.7389175661983 4.7693047927833 4.0365181479676 4.1567289363686 5.3282825984575 4.3639239562918 4.9597046489868 5.4846046462428 5.7317961406761 5.7118864169279 5.1447180225534 5.1063691668374 5.6720819044916 4.7311065453088 3.8482911142738 5.6051455528231 5.6032536519253 5.128409402119 4.2701949460753 5.8783623971288 5.1630843103075 5.0405487614004 5.7938046508888 4.9275220588562 4.1560594700439 4.9154426699512 4.4574377805642 6.1324360672788 6.3359028015316 4.6106406108785 5.3325028988692 4.5922583000646 5.3349226466195 5.8886049536584 6.2471360615288 4.3769087274142 4.5864636725991 3.8343564150498 4.6692095042934 4.1633098802549 5.415709335022 4.5857707888508 5.628780473356 4.6756608834559 4.1474614241451 4.9631342309986 4.3932157217137 5.0142591058052 4.0682774891234 4.1042508056831 5.4958160414992 4.6077430453268 4.0718835952521 5.7769521955838 4.4442577483034 5.0811113615619 4.5089029471167 4.5173494844045 5.1052128052736 4.4270278332501 5.5371193551256 5.2806791100334 5.9765789791093 5.1006893958408 5.5558428127925 5.5020452256199 5.6420042001139 5.1210896084239 5.1415310108383 4.6467519742749 6.0216863770464 4.8071070289448 4.1486242916825 3.9222193288787 4.3292640767419 4.5704939053362 4.658280971281 4.7422374540261 4.0530503958682 5.2607118446256 5.5060297695913 3.9724426985836 4.3532044867913 5.130101369939 4.1842775907566 5.3408169594041 4.3176760818509 4.2366698812093 3.8896470016671 4.8419322728882 3.9188170595216 3.8971299000949 4.3941869347973 4.2065319924372 4.4813512311832 5.1093279902338 4.5116853636762 3.8695654072141 4.0253517594224 4.1206901438755 5.3616271774314 5.488