# vtk DataFile Version 3.0
d-2__ created by libgimli-v1.0.12
ASCII
DATASET UNSTRUCTURED_GRID
POINTS 1303 double
5.625	0	0
5.511811217919	-0.146388704457	0
5.676386535709	-0.13519637448	0
0.25	0	0
0.175228502521	-0.179050409113	0
0.326009290428	-0.144330725415	0
0.375	0	0
0.990207725992	-0.114957291708	0
0.841075314552	-0.137634199948	0
0.926498288371	-0.349340723189	0
-0.001071200562	-0.386156929004	0
-0.003317641763	-0.130454088023	0
-0.192720422374	-0.216308252768	0
1.25	0	0
1.175215748534	-0.200562384647	0
1.341115762259	-0.128605193971	0
1.375	0	0
2.25	0	0
2.168494514827	-0.19848886597	0
2.338304607341	-0.128945294536	0
2.375	0	0
1.911268305082	-0.334701951691	0
1.986191885908	-0.110806668109	0
1.838390258011	-0.128853462534	0
1.75	0	0
1.670105949089	-0.197137117999	0
2.986685504441	-0.10889534818	0
2.838723720416	-0.127406828384	0
2.912854264006	-0.329775839393	0
0.75	0	0
0.664572693147	-0.222613872306	0
3.25	0	0
3.168798596028	-0.193682232199	0
3.337828500197	-0.125181208794	0
2.875	0	0
2.75	0	0
4.25	0	0
4.161099470995	-0.193412132741	0
4.332718836325	-0.127723897736	0
3.83511440706	-0.12403687807	0
3.875	0	0
3.75	0	0
3.901908238995	-0.321557035295	0
3.983050435256	-0.106770030737	0
3.665527023987	-0.190866765849	0
5.25	0	0
5.164693411436	-0.21656556845	0
5.338419985376	-0.147288917438	0
4.834321952324	-0.135810575609	0
4.875	0	0
4.75	0	0
6.25	0	0
6.178399669611	-0.137425451145	0
6.356205370496	-0.193853696818	0
5.817814980918	-0.161175429964	0
5.875	0	0
5.75	0	0
6.611939839541	-0.314381537706	0
6.522886280605	-0.104721203126	0
6.75	0	0
6.669178832877	-0.119404962711	0
6.836073690852	-0.177498311423	0
5.39059629209	-0.37339102075	0
4.660917359886	-0.204007052252	0
4.902096977384	-0.356327271651	0
14.897042426984	-0.319128540459	0
14.98121339776	-0.105010975498	0
14.832720105416	-0.123004000492	0
2.669265824618	-0.196872625129	0
7.656019919505	-0.144451020927	0
7.75	0	0
7.625	0	0
6.625	0	0
8.75	0	0
8.672937461928	-0.164309120831	0
8.834289374889	-0.109279841483	0
8.206809119751	-0.294811800109	0
8.187056112549	-0.110869448227	0
8.024316200302	-0.129362764133	0
7.157390904024	-0.111206354394	0
7.25	0	0
7.125	0	0
8.25	0	0
8.125	0	0
9.75	0	0
9.651145885459	-0.185384966231	0
9.827054067621	-0.122428024454	0
9.381816956327	-0.305807769915	0
9.476753337472	-0.101567493772	0
9.327490061855	-0.116748040282	0
10.75	0	0
10.655660803951	-0.196164841752	0
10.830485405183	-0.127989131147	0
10.386748323888	-0.329675548046	0
10.478464938155	-0.108955040137	0
10.328560245085	-0.126395562242	0
9.25	0	0
9.375	0	0
10.25	0	0
10.15270392044	-0.192469144253	0
8.328856990144	-0.128933011689	0
8.375	0	0
9.153857570119	-0.175508527296	0
11.75	0	0
11.660624577581	-0.201812344528	0
11.833823570609	-0.131890823957	0
11.395399221028	-0.337817920558	0
11.481219500696	-0.111845889235	0
11.331881500183	-0.129806070652	0
12.75	0	0
12.669299873111	-0.199190799603	0
12.839534650452	-0.128328673855	0
12.40897914742	-0.340185307353	0
12.485654611126	-0.112072117633	0
12.336727606385	-0.131188239877	0
11.875	0	0
12.25	0	0
12.164627546098	-0.202605127067	0
13.75	0	0
13.669268468008	-0.186168180444	0
13.837322273199	-0.120178339978	0
13.416957459915	-0.319650485848	0
13.487510959619	-0.105281058988	0
13.34010202956	-0.123833443479	0
14.75	0	0
14.66080663422	-0.189613659871	0
14.399926333663	-0.319306441484	0
14.4823067449	-0.105599641009	0
14.334114343934	-0.12250571155	0
14.875	0	0
15.25	0	0
15.158227025815	-0.185762723401	0
15.330441202311	-0.11956675178	0
13.875	0	0
14.25	0	0
14.163960939829	-0.186365139356	0
12.875	0	0
13.25	0	0
13.171786689458	-0.193064330135	0
10.875	0	0
11.25	0	0
11.158129238503	-0.198418008741	0
7.31587636932	-0.171642077952	0
15.3902841013	-0.308450173235	0
15.478958243586	-0.102394874489	0
-0.125	0	0
0.125	0	0
0	0	0
-1	0	0
-0.706889652808	-0.331752981492	0
-0.5	0	0
1.125	0	0
1	0	0
1.625	0	0
2.125	0	0
2	0	0
1.5	0	0
1.488007132967	-0.109900770852	0
0.5	0	0
0.474245721096	-0.130043839003	0
0.625	0	0
3.125	0	0
3	0	0
3.625	0	0
4.125	0	0
4	0	0
3.5	0	0
3.485533411273	-0.107014956798	0
5.67736414417	-0.368119689468	0
5.125	0	0
5	0	0
4.98353533542	-0.118243061674	0
6.125	0	0
6	0	0
6.009467825362	-0.139471566496	0
6.5	0	0
4.625	0	0
5.5	0	0
4.5	0	0
4.481603306259	-0.111052305129	0
2.5	0	0
2.486482293556	-0.110456056597	0
2.625	0	0
7.828740664136	-0.157959666613	0
7.5	0	0
7.497789303332	-0.098817221798	0
8.625	0	0
8.5	0	0
8.493725508365	-0.094448160765	0
8	0	0
10.625	0	0
9.625	0	0
9.5	0	0
9.125	0	0
10.5	0	0
10	0	0
9.976983002093	-0.106037154081	0
10.125	0	0
9	0	0
8.980258705317	-0.095443922293	0
12.625	0	0
11.625	0	0
11.5	0	0
13.625	0	0
12.5	0	0
12	0	0
11.983083448534	-0.113269018621	0
12.125	0	0
15.125	0	0
13.5	0	0
13.125	0	0
14.625	0	0
14.5	0	0
15	0	0
11.125	0	0
14	0	0
13.984735949845	-0.103165953766	0
14.125	0	0
13	0	0
12.987740386932	-0.109238757727	0
11	0	0
10.980033547654	-0.110118532971	0
7	0	0
7.012790729926	-0.096165366155	0
15.625	0	0
15.653391866104	-0.184257106926	0
15.75	0	0
16.25	0	0
16.151956269841	-0.190746813766	0
16.328162175541	-0.125534698515	0
15.827345422636	-0.12109528269	0
15.881623705918	-0.315197408181	0
15.9768075603	-0.104841845177	0
17.25	0	0
17.155473725888	-0.187015736188	0
17.328334720487	-0.12053442359	0
17.375	0	0
16.97978281674	-0.105790715925	0
16.830585534618	-0.124270763258	0
16.892220832712	-0.321708894118	0
16.75	0	0
16.655725821363	-0.19281499559	0
18.25	0	0
18.144056513649	-0.199584109463	0
18.322695877645	-0.133173012767	0
18.375	0	0
19.25	0	0
19.156955168382	-0.212194778097	0
19.332395147696	-0.137501625504	0
19.375	0	0
18.978107771567	-0.118463258117	0
18.827251646435	-0.137822523984	0
18.884674261801	-0.359498065923	0
18.75	0	0
18.648603260315	-0.210400354993	0
17.973004229039	-0.108213471414	0
17.823362138939	-0.124125311933	0
17.87020700187	-0.324156104502	0
17.75	0	0
17.64837652944	-0.187413016584	0
20.25	0	0
20.167288289523	-0.206556633625	0
20.33799343326	-0.133667464393	0
20.375	0	0
21.25	0	0
21.172020853715	-0.201327641466	0
21.340729826518	-0.130206344264	0
20.875	0	0
20.75	0	0
20.839555732676	-0.132066213667	0
20.987710400762	-0.112937783384	0
20.915843633601	-0.342386775443	0
20.669904108595	-0.203936882105	0
22.25	0	0
22.168893714495	-0.194483818359	0
22.337089427477	-0.126591453251	0
21.875	0	0
21.75	0	0
21.840184239699	-0.127666317168	0
23.25	0	0
23.162361450448	-0.215073727418	0
23.335945395372	-0.148199257458	0
22.875	0	0
22.75	0	0
22.83504078106	-0.133126573368	0
27.412614995451	-0.337768305098	0
27.406417478875	-0.760610856776	0
27.663031754041	-0.476449210851	0
23.674319496044	-0.139602731619	0
23.75	0	0
23.625	0	0
22.902876337082	-0.348446434986	0
22.664415839639	-0.19979598046	0
21.987454968006	-0.109075483352	0
21.916658702332	-0.330379709848	0
21.67241042914	-0.19774510361	0
19.984830323221	-0.115851903278	0
19.835879034474	-0.135573032779	0
19.906686139011	-0.351521653308	0
19.75	0	0
19.663378765328	-0.209646647928	0
24.75	0	0
24.672305039303	-0.121865624882	0
24.84054616259	-0.178479133746	0
24.25	0	0
24.125	0	0
24.179559510218	-0.145425217914	0
25.656694723316	-0.141492417978	0
25.75	0	0
25.625	0	0
25.25	0	0
25.125	0	0
25.159224348757	-0.109007087058	0
22.647257188685	-0.476376729768	0
22.872248033711	-0.780455516934	0
25.317652966423	-0.167196322239	0
31.908525182248	-0.237434634112	0
32.248547795208	-0.367887731521	0
32.025	0	0
26.398062594932	-0.327144710524	0
26.335089901602	-0.124890632532	0
26.169730315141	-0.188549564961	0
26.75	0	0
26.662500836065	-0.197477656933	0
26.835401004001	-0.129534360312	0
26.375	0	0
26.25	0	0
27.486869476066	-0.111474770432	0
27.338367230812	-0.130187170762	0
23.816158307302	-0.168335740772	0
23.875	0	0
24.625	0	0
27.75	0	0
27.67023663024	-0.198727549038	0
27.839431305592	-0.128541986375	0
27.375	0	0
27.25	0	0
28.75	0	0
28.666013303123	-0.192953151514	0
28.835335299513	-0.125393524551	0
28.875	0	0
28.41074998604	-0.32692743598	0
28.485854239984	-0.108071323096	0
28.338261561589	-0.126341817439	0
28.25	0	0
28.169650699531	-0.195402875109	0
29.75	0	0
29.656991685033	-0.201213204108	0
29.830700495316	-0.13323291855	0
29.875	0	0
30.75	0	0
30.665605116896	-0.213760177502	0
30.837855425721	-0.139272404211	0
30.875	0	0
30.987248292653	-0.119871959545	0
30.911614165903	-0.362389547989	0
31.25	0	0
31.174363802618	-0.217041176186	0
31.346460135447	-0.143418487957	0
30.400599561582	-0.360265197586	0
30.483280501431	-0.118794220148	0
30.3336351656	-0.137924489201	0
30.25	0	0
30.159375273254	-0.21004086356	0
29.392934647931	-0.331414044449	0
29.48031118177	-0.110263057575	0
29.331777210358	-0.127344913482	0
29.25	0	0
29.160548153072	-0.194064979946	0
27.167334579456	-0.200440763045	0
24.359650796728	-0.20304719459	0
-0.25	0	0
-0.404335947278	-0.221464959739	0
16.125	0	0
16	0	0
17.125	0	0
17	0	0
16.5	0	0
16.478267427857	-0.108008273171	0
16.625	0	0
18.125	0	0
18	0	0
19.125	0	0
19	0	0
18.5	0	0
18.473681471998	-0.115768873419	0
18.625	0	0
17.5	0	0
17.47687846862	-0.103462148239	0
17.625	0	0
20.125	0	0
20	0	0
21.125	0	0
21	0	0
20.5	0	0
20.486446843971	-0.114298370976	0
20.625	0	0
22.125	0	0
22	0	0
23.125	0	0
23	0	0
22.983281399654	-0.116385827149	0
23.5	0	0
23.509214189908	-0.149359691049	0
22.625	0	0
22.5	0	0
22.48467632496	-0.1093719097	0
21.5	0	0
21.488472844532	-0.111208801785	0
21.625	0	0
19.5	0	0
19.482219828947	-0.117572233456	0
19.625	0	0
24.5	0	0
24.525433875838	-0.108080714825	0
25.824234283709	-0.149177038136	0
25.5	0	0
25.498573523516	-0.096586408813	0
25	0	0
25.014769107289	-0.095147895568	0
21.919931345447	-0.741308582321	0
22.160361550711	-0.463896476278	0
26.625	0	0
26.5	0	0
26.482631880244	-0.108512805864	0
27.625	0	0
27.5	0	0
27	0	0
26.984612185119	-0.111680714924	0
27.125	0	0
26.125	0	0
26	0	0
25.990349817319	-0.10847866492	0
28.125	0	0
28.625	0	0
28.5	0	0
30.625	0	0
29.625	0	0
29.5	0	0
29	0	0
28.983089608831	-0.107750428826	0
29.125	0	0
30.125	0	0
30.5	0	0
31.63125	0	0
31.5	0	0
31.494696987447	-0.123712578064	0
23.671261205816	-0.380102168636	0
31	0	0
31.125	0	0
30	0	0
29.980228243528	-0.115525062547	0
28	0	0
[...]
CELL_DATA 2263
SCALARS 1000.00_2.61 double 1
LOOKUP_TABLE default
7.2495632282593 6.2263417264772 6.2807021888275 7.2043904261495 6.1251900239932 7.4660559400772 7.5696246903431 8.1322661354464 8.0945189201252 8.1523201972318 8.1024681118441 7.3165046642567 7.1351397880528 7.18920565489 7.3463440410467 8.5269080792704 6.1703029692691 6.5393753525477 6.0977730473292 7.8323821575265 7.8908690830397 6.9249308993582 6.9740607040057 6.4866944835759 6.1359451600803 7.7195716797496 7.0870784701052 7.7275762714479 7.8190178580382 7.7147434178836 7.433553845621 8.2970780718043 6.0578015553652 8.8258994821 9.6218181624142 9.2142306575936 9.8986543785592 8.6753097841679 7.9208641111144 10.745660464769 8.7979164565575 7.8539774774937 8.2357250924557 9.9870190851739 7.9773642519566 8.165323733374 8.6722558829388 7.7601589430123 8.3226118543494 8.0718646317205 9.0795546810829 9.9875918238262 8.8105840652642 7.4658845753672 8.1714278763655 7.2925094513377 8.5303491473099 10.043983615387 8.0159224600427 7.9039866731293 8.189788427788 10.884741536253 8.7197811253455 9.4052827958897 7.9066479045866 6.1499229275496 6.134783680416 5.7856219097242 7.3577080576178 7.2990905474353 8.0614329789601 8.322620231206 7.9445865008737 8.222043434154 6.7360143383693 6.1547659314604 7.4137198736796 7.533125670924 6.0540199771471 7.3466472909331 6.362468856751 8.3013532941317 7.1833078104685 7.9255629483976 7.0404749630751 7.187614398239 6.2335654711726 7.8086888774785 7.4597761984618 7.3075653352177 8.1763019192657 7.8304430499498 7.9249663904412 7.0329042636688 8.3652129398913 8.7735899426413 9.9207934689039 9.5761036213594 9.6081095364754 9.0129167590827 10.69017107425 8.3283235006718 8.2068298696113 9.8287018346137 8.3308658694637 8.1138242254135 8.5994495669218 8.6699361179427 7.6688577571213 8.6678304512216 9.970129843153 8.0085146419128 8.9023203611277 9.270698288254 8.8521018445344 9.4944442024598 7.980591778389 8.0533841723936 8.4691210856446 8.8916632361047 8.9761911180655 8.1528126007538 7.9629123817209 7.6583715442603 9.7225312261307 8.3300934547268 8.1494596976193 7.5902045161044 8.3142519160763 8.2543291079081 8.0839602340908 8.0721257509896 8.0101647746335 10.934792421708 12.248308270546 6.6189084206139 6.5358738780418 8.4035301389396 8.5532876971592 7.8941027996377 7.8317420084929 7.5473277381982 7.8796185442686 10.256164355139 10.301254158875 6.6732025495844 8.5221961779386 7.9094820661074 8.7371701907646 8.3878190513117 8.0667903638632 8.1411202976824 8.9885454085368 6.0555427867677 7.9495120188018 8.5940266729975 8.9689540163445 8.0936807653155 7.8916276308669 8.8220561692329 8.2599672563644 7.9429415658676 6.5079946744199 9.0297610131431 7.7089469546663 7.1842410350907 7.7494026005033 6.280926586562 7.3514705622193 6.5624241365733 7.3794194095509 6.3977481635074 7.72075518037 7.8203932731535 7.5066526296812 7.6353835779767 6.181179990112 8.4368387930306 8.4988723445271 8.1381498512798 8.0665120090723 7.8568674705802 7.7605763319238 7.0126973699165 7.0524392443897 6.9793054261398 6.633987760822 6.8348539508278 6.8221958283509 8.2230059779323 8.3623262362042 6.1534820024152 6.522022275548 6.0122556949057 8.1118850363231 8.0350078451955 9.589629144059 10.554163339761 8.3305596864445 12.099882339468 7.2527666435108 8.2889804131887 8.2133790773439 7.1012252418681 6.7962801211575 8.3949287276388 8.1904811795037 8.1363844740363 9.7356278482792 6.7200884445765 7.3311315526649 9.8762405912937 10.314870986541 8.3608376848758 8.3741104101741 7.8192670949682 8.6364976179171 8.1763682320491 9.0623385885042 8.9784661879612 8.2604405911925 7.3098808534393 9.1643869272982 8.4087484012253 7.6429301035439 8.1629278239233 7.4218104345666 8.9190168771321 8.7953357548608 7.9362944984811 7.0533633053367 6.7493479084854 7.1154294910336 7.4746975501476 6.9100206330767 6.3000179168335 7.730045070977 8.2828633626645 8.003987413864 8.3900576811966 6.9886010556776 8.3251443926195 8.5659875455856 8.0677051471921 6.8870154569477 6.9278151379073 6.1603166482813 6.7304768595075 7.679153803225 6.9110936850469 8.4369833338686 7.2124689294728 6.6874166792086 7.9630048478951 8.4215045944627 6.8771790709943 7.7253815407731 6.6513453586394 8.1795575768819 6.1404842838439 6.6740741353423 6.5220943297612 7.3042307440054 7.8328754643174 8.2772049533823 8.012193793417 8.0058609555682 8.2858604406252 6.8768876988027 7.3577048096088 7.4812873253035 6.6903062668707 7.7976350799216 8.6654794442086 6.1638848040331 6.7223263108391 7.8618496038505 7.7615552392036 7.399371431976 6.4809923171217 6.6256049379011 7.2317817991192 7.4596406522859 7.0671083070118 7.9070079206558 8.0184649133118 7.7651068802491 7.3686685952758 9.1635258110556 9.2964182223821 8.6016596676988 8.8834355471525 9.8641237034759 8.4857962882835 8.6670289470955 10.262289615453 10.457568971159 8.1704882997279 9.0698854194458 8.4421172218813 7.9538456400755 8.53869405063 8.3325001307617 7.7263861978403 8.1157701356407 9.0687727270175 8.5776476890036 9.7581302161077 9.6466978334754 7.9597705383758 7.6188506014004 8.7479309410065 8.1322222454911 8.5502366538774 7.976558278379 7.9562879385803 9.0190276063226 9.2389494945369 8.6649918224257 9.7106012836383 9.4211355652212 5.9418526738938 8.1363955505957 8.4371972352747 7.9885534834109 9.4555732105923 8.7333340140795 8.2449403481974 11.240566788948 11.308004613053 7.0331420862823 6.718264311357 8.1930024407344 8.672306658648 7.3462018623572 8.3006579885024 8.3515023065384 7.4151937079173 10.056071164477 10.113233550636 6.9777805179816 7.0164570867132 9.4788055706385 7.8728462340578 8.360213376805 8.7441201137981 8.4097368402631 8.180242309607 7.6944131759057 7.2874337903169 9.0119525539312 8.8666407527478 7.5167315837179 8.3569500094064 8.2737455320475 9.0411731708884 8.9674108811278 8.2205899685863 8.0672645194221 8.5467625966542 7.4608863712862 8.3617326820019 6.9427998840339 6.3400590167838 7.9877189878724 7.20533905231 7.1718417161016 8.008719805822 8.3821825296014 8.5924634308917 7.9385729222045 8.3565878876359 8.1905574398886 7.4640981603107 6.9517440611757 7.0421843377601 6.8090167506083 6.6305933863223 7.0203896959472 6.8787040911696 8.4890269090484 8.3360138069644 6.2287706826356 6.521129476895 7.6808325598894 7.0590509081252 6.50358182079 6.0921764321163 6.6279822331074 6.1849520344792 6.6983626617225 7.1296036282936 7.2461373474154 7.7612231257977 8.1579959310487 7.0809028535751 7.2307617667079 7.697902639777 6.6330936147655 6.438960144972 6.7855946677235 8.7762515562391 6.8954297386873 7.864535476267 7.262334753284 6.6878473581862 7.3413601931353 7.0393488096974 7.7066407978893 6.3982463134193 7.7846394988145 8.4928898570369 7.8467335561067 5.5959784783151 7.0386474370194 8.2647851546575 8.1416108888514 7.9567350934031 8.6669215479904 8.6958229543567 9.4782971241097 8.7685693497377 8.158977487971 8.2310324294882 7.7118026576629 8.8751284416547 8.3561506190059 8.0815227253507 8.0456854387178 8.4312450091507 9.5576843832051 8.7906431011693 8.6366401017973 7.3954027285684 9.0848370366792 8.8952338054303 8.5603657442564 8.2190896578024 8.3635151351416 7.9583721148216 7.8995504163246 8.4030877488317 8.1682752027119 8.4752075543455 9.2216044302197 9.585815570452 7.8439484878273 7.9535178025302 9.3508681067961 10.140235777942 6.3038405873573 8.5736616131807 7.5904912390121 8.4717830385322 7.7109608991768 9.7341787926303 12.534645843849 6.8828120437565 7.9097345567287 8.9585115078367 7.707042567067 7.4831946120576 8.0525218695032 8.6728640007146 7.2393431305266 6.6841021579048 9.6539356022335 8.3334393715184 8.349429230833 6.6810816522455 6.9116466176906 8.4507362001903 9.2713451891673 9.7629444842903 7.7667731159444 8.1276730457949 8.497938676193 7.0688855981699 8.6334689802056 8.3598824876403 8.1605204549765 8.5187521789886 7.3432502150115 6.9491363068525 7.9126959278991 8.4386987983653 8.3512796724133 8.8637334526085 6.9240916117779 6.4572424539095 7.7989765862422 6.9541061967449 7.4863136025381 7.8219479678886 8.0259075646122 7.9392409192513 6.5753938251251 7.7819166448638 8.1678678027551 7.5559523855552 6.6958097627475 7.6916227084596 8.3476988513246 6.7215248057231 6.808852085386 6.5850901708026 6.8558576107194 6.4013630316986 8.0814585063379 7.4489461164396 8.1638170023906 8.4124083319272 7.2373906672459 6.4500246225788 7.9285190692199 6.7164934283473 5.861347204603 5.8675786035696 6.7015619772733 6.397388869345 6.3086775988445 6.3863271644542 7.5166123937262 7.6861859509753 7.9736985972088 8.0546757381281 8.0405813370672 8.2094547285811 7.0619737512932 7.2939601615627 6.8401104809838 6.8968110625555 8.0903156508252 8.7225701291979 6.2677882146126 6.3719888981182 6.2560965577492 7.8591509412273 8.1968608876124 6.7943367840865 6.2806673259917 6.2779769944604 6.8997899334216 7.0235214161826 7.3684523110473 7.9533957898447 7.3343833364362 7.3300835645638 8.7588656561416 8.7806583265684 8.4786632274775 8.6602744853576 6.6584927931035 9.9545403309023 8.3390695014594 8.7110524888473 10.103273252341 10.695474944688 8.4192638998224 8.635668718711 7.9222620549146 7.8510924058659 8.1366880798267 8.1332227313283 7.7573507553966 8.0211264598493 8.3972183668783 8.8210698614074 9.6238966231541 9.9132310264911 7.6612720511187 7.3913670703955 7.975023001804 8.1855642900292 8.208180327281 7.9686827306337 8.438314737077 8.6453529324243 8.6795192627644 8.6580556784314 8.1092173621401 9.7387758563917 7.929004839536 8.4321195201599 8.4108284591987 8.8347390133888 8.3050655730094 8.1477724638138 11.015979857605 12.028143282257 6.6393720797983 6.5814146098226 8.2459614494373 8.6261267218253 7.6205481479637 8.1439039160634 7.7335918692514 7.5775646462463 9.7074008306726 10.184127231945 6.8019704292865 6.8159323707019 8.1925003107177 8.228528135752 8.3232560924301 8.5571586137069 7.9870130804972 8.1313749554736 6.0095367718726 7.5274974237484 8.0037550299028 8.9139903545323 7.8327364771818 8.192755785946 8.4643628664141 8.6290511791233 6.6893468063574 8.1725328850126 7.6352555719999 8.6979044873277 6.6101659509539 7.8103515927981 7.0145794199097 6.3971640832973 7.2497107842707 7.2964580005838 7.4476584348693 7.8870786654122 8.2928992562142 8.531328711194 7.9553061316317 8.2399368681735 7.5732285270509 7.6163970166479 6.9434089675323 7.0580550656651 6.6591962297376 6.6055374279775 6.8039787362734 6.8337630294062 8.1997680697106 8.3298867087855 6.2190448813226 6.2985189191937 6.6059147279899 6.5947986662555 5.948326144973 7.8230127098922 7.05203961874 7.7822645107664 7.7027963280535 6.3593643450132 7.3060548874176 7.6335219744393 6.5943860192526 6.5797949811981 7.1952769190601 7.9355221923864 7.1758270745771 6.3867930816135 6.6407919126884 6.1496715030238 9.016742266653 8.3380229235166 8.021000065692 8.6347454666313 7.4002198080769 9.6155158838713 6.9651026551603 9.0992129265825 9.7221362836394 8.9210989130336 7.1578962241148 7.3428957323216 7.3211364126071 8.6976758941009 8.4464828935926 8.2261234057292 6.615572425581 8.8011223968855 7.9045639681905 9.5279783857386 9.0736374681658 8.3891112236764 7.7716354952939 7.9090105293992 6.7655208146533 6.8008127566648 7.3073774859047 7.9883519993412 7.4175936237803 9.0721953500261 7.0087220900831 7.7562753192564 8.3168201295216 8.0812064897102 7.3296809599366 7.1716352840589 7.4958843804826 7.5521920849223 7.9196952757016 8.6102661986518 7.1228594805041 7.8975133204668 8.1358109116791 8.7353750314391 7.930463026637 8.6893491219475 6.8348113073909 8.7614089909731 6.7425099652129 8.3785843071269 8.4478940518707 6.8971662180352 7.3424896413621 9.0507317507101 6.3631964613219 8.3341830428 7.6162519723511 9.3271078973408 6.5257511938566 6.7355812911851 7.8556096859098 7.9967724865599 7.7037009125318 7.1941148479126 6.7732693437073 8.603220684367 7.0005009749811 8.2275383664078 8.6005516328383 6.6561014093641 7.8073315594088 5.0404809178588 6.6777085696806 6.4083408303956 5.5854383418806 6.6224096612075 6.1875547487127 7.0909060313074 7.0749431176091 7.961108337259 5.8352815749397 8.3286892255509 8.0437571240944 6.3745599103177 7.8781439049095 7.9430462232311 7.8779168151259 7.7086564966367 8.0329461527867 7.6817218332315 6.0693575211628 8.3532817711514 7.8381291099064 7.1514243359897 6.7923996483078 7.3458526126676 6.858531910665 6.8883429640358 6.5133748558005 6.64294481696 6.2896196715786 6.2597884804802 6.502356726722 6.8424805893044 7.3300172206392 7.9088531517803 7.293577330215 8.3716646355608 6.4213089543275 6.7577674455203 5.7056654276315 5.924265313378 6.2989993112635 6.154961671567 6.0097878633595 6.9057976485184 6.0048913441449 6.190687561571 6.4637886943049 6.6391385246421 5.8338069236438 6.4000458497167 6.1570604594575 7.6967753890989 5.7344702867262 7.2341744779941 7.3076232949202 6.7194196505057 6.7497442530427 6.0180466136365 6.649599689498 6.1380395632394 8.4617662398896 6.1512283243204 6.0069726254978 6.8285833565576 6.9750331223763 8.0649704813838 6.4339128153848 6.6162122313564 9.7902881830232 5.1658705282819 7.8472022615927 6.0468009483248 7.346513644952 6.6759699363885 6.5048071843277 6.8346343205697 7.0214086301236 6.1326078249272 7.6364321230061 6.5228913979808 6.0402624202235 8.0059137106445 7.6494241875501 8.12876494002 7.9021736379988 8.537459126409 6.8617599237185 8.8500897883724 7.0225951715909 7.7213302454598 7.1033353805962 7.9332769103161 6.9424137791545 7.7728735666028 7.2390258243599 8.3861685224485 7.1962720374938 9.0084261818118 8.2331506884602 8.0657109321849 7.8158576796834 6.5782558271828 7.6172317541229 8.5241114459396 7.8007052509299 7.381965342574 6.5946021846411 4.8122146076851 7.2441675391349 5.9857686761197 7.0877254715494 6.5786741827435 7.7452459054036 6.7182484474087 8.2042108316054 9.3986340332113 6.8157730214181 6.8699680745734 7.7439883279064 6.9241602718146 7.6891488783218 6.6715883132645 6.7195218870043 7.7584858949892 7.1381594928618 7.427847334763 6.0037412951305 7.9136808004785 7.301620818714 8.7601379365378 6.716933886708 7.2491098239335 7.3162842167008 7.8285657156667 6.7579499440254 6.5885816421529 8.07752621691 7.26490055213 6.2932752033556 5.4120973510796 7.0791978903447 8.0356952895443 7.5172909497156 6.3842385338768 6.6740829920979 6.6547917081171 8.6359497390001 7.6452086080435 5.0593600617095 7.2944478691921 7.0184897576437 5.2540643752233 6.4223943963719 7.4536673009884 5.728375324273 6.0804927223341 7.1543531757571 6.7447362492109 6.3072273654375 6.743805026999 6.4967793876431 7.3974638935772 6.6891956933272 7.8678715833936 7.2918878698437 6.7842155036154 6.3146158048575 6.263629185026 7.6359008128115 7.8042534979456 6.6676722249283 6.2556813550467 6.100893751296 7.5825408783487 5.258698164136 7.1766576261943 7.0255544917394 6.2252942446691 5.8005384836094 6.2197273757982 5.1355431761458 5.0727328838246 7.9602838416056 5.8829105591166 8.3347450705774 6.321405132635 6.0150186816383 6.1248712316496 7.1195855468224 6.395180592722 6.8884811671796 7.9462287000454 6.8289125288948 5.9911690641122 7.0760972409468 6.4768915299024 5.2148675256812 5.7664089645732 6.0476589000047 7.3304757331403 5.5678824029327 7.2741721497429 7.3421894730957 6.5826091898261 7.4264232277218 8.4658597740174 6.925697665728 5.2618074981118 6.7200543950338 7.203467865818 4.959014279558 7.7500694480171 6.2933559470238 6.4086542075763 8.0812462004994 5.6389603646919 7.6844753107654 5.3168558989044 7.3090865051961 5.8671913878175 7.0877324478463 5.4333311580194 6.9554281394887 5.3585964315784 8.0725846210451 4.8124364472739 7.3396629172901 7.2075092489098 4.9784223583571 3.8675184803481 5.7706353747618 6.1978037164054 6.6620550520391 5.5062892800092 7.238951844606 5.6710395692031 8.1199217829053 5.463948978268 5.4204065643621 6.5576266290318 5.3656804249828 6.3383177046031 5.5895202572386 6.0872304926359 6.2227989435673 5.5915122799395 7.6935052220578 5.7631418633981 6.9969523305674 7.5317734943599 6.3887467027995 5.5082664423848 6.4592710653207 4.7061011880446 6.8906292307584 7.331252519361 6.9111578245678 7.5441245444746 6.5087252858695 4.5315346345466 7.5595815322943 5.4508661483927 7.0386923648155 5.2769105190105 7.2230104284746 5.1172504755236 6.784575968462 6.6421476629678 5.2908290899708 5.8987132066814 6.904368139294 6.458802780398 5.9031358719637 6.5087217072382 5.8586844356283 6.2846302990945 5.6619571291878 5.9319624208231 7.1898418974666 5.4316445810688 6.6506370989629 4.3863112688161 7.3739667227374 5.0169189079707 6.9098196038489 6.6401452352567 6.8006702055583 6.3261175176715 8.2515983016244 5.8745093926192 6.9481372028639 6.2051257349056 5.65787818308 4.9064848378941 6.507688758252 4.983460987338 4.8085192689658 5.6445141135665 5.2109769590616 5.690031799033 5.5578972435876 5.6398697502041 4.0863895309132 5.620586948711 5.4900527098419 5.6359362012197 6.0106884217783 5.8519979686633 4.7738086495697 5.5673530615497 5.5448528839312 5.6755359213719 5.5510133543612 5.1655386939621 5.6554033245875 5.9984191734633 5.9253551082413 6.827766293935 5.8562824838866 5.4973744786225 5.5273574431042 5.4568459573817 5.7031926155113 5.2076667074635 6.4009747702275 7.2164357487747 7.1505455186324 6.7587131658785 5.0675898183103 6.3810812705643 5.825595598036 7.2250381183157 5.5762829914744 5.0353800472403 6.8554628304261 5.6789010566176 4.8899970564979 5.8505274192244 6.4451473891201 5.2170416076838 5.2208127265146 5.8221257429259 5.1671840558719 4.3487522913727 5.2553379062293 4.8954735567868 4.8675583812997 4.3686292158619 4.417180667898 5.6435243071054 4.6579242648967 4.0939778577305 3.896600851125 3.5792691934588 4.2070743221305 4.3546073504324 5.9675408854512 6.3887831743441 5.7637777824444 5.9621936970886 7.9433424438767 4.9270333294389 5.5229164144518 5.4794877054499 6.7635099967132 7.4077843273486 5.1071871057034 5.3839299438271 5.9575380845858 7.1672945107195 5.6757715811721 5.4481613353476 6.9621502500595 5.859590742646 4.705438120461 5.0683981521061 4.8941624776457 4.9389368132415 4.2186624932739 4.8719817553353 4.2538455483609 5.5074733148083 5.7896801312972 5.7125832008003 5.0065180796512 5.7098038374483 5.9344085244895 5.6244259826156 4.9872418152671 5.0799725781534 4.8687845285258 5.8455683880341 4.8732118729342 3.7349793186949 6.0170194182159 5.4281512499005 4.7630079710148 4.5395292133054 4.7895984211853 4.3962680336066 4.2920288514241 5.1965590784585 5.9676330752248 6.1389229477816 4.444842337103 3.8798426216673 4.7554296445831 5.4849460296124 5.5295605409631 5.5118240911322 5.7646621752984 4.9581267001952 5.1889288532315 4.5633090285348 4.4296127365032 4.1125922211374 4.3999319393608 5.0674326039917 4.0324523864241 3.7251639140287 4.605683332565 3.9856148996927 4.2220869494145 5.0578934338687 4.2213681239539 4.7403980773734 5.2494035661932 5.7450738179091 5.616150433655 4.9451416772566 5.4285724004594 5.8683935723182 4.9675380010708 3.6476797959247 5.7472814897024 5.7346164657912 5.5466280146069 4.3875698991867 5.5440389514559 5.1740136589081 5.1195996636573 5.4712676171896 4.8724394022861 4.2711937716472 4.9595190859065 4.2938088457746 5.9292626267375 5.4965911865329 4.3756799553539 5.2349668182926 4.6560309343336 4.905885362694 5.2355063236521 5.886944217557 4.5494933088182 4.7912283642649 3.742144417698 4.6228464163942 4.3147700438691 5.8010160208871 4.8627814305125 5.2062941376117 4.5412991748199 4.1178517906438 5.0147279245819 4.4268819095688 4.9955634112704 4.0502662054151 4.0854857677945 5.5116624646777 4.6738430927303 4.0317738332362 5.4863540547965 4.5769838572155 5.3009526250063 4.2683159574441 4.6817796654435 4.8209518229588 4.2551546397993 5.3794340978129 5.0754396980237 5.8923278653106 5.0846562001167 5.5718996642149 5.483596919383 5.8564735836331 5.5227775115191 5.5690641093274 4.8886555005185 5.6334873146724 4.9547813135785 4.3122834824817 4.025794113735 4.3520864567434 4.6306602030939 4.4846215120205 4.4487476614758 4.0433613374697 5.1212029536077 5.4292402855128 3.7204295102833 4.1872962560397 4.8344065970349 4.0811859378654 5.2671548966561 4.4535621188126 4.3695263279286 3.7231069710612 4.6536557490367 3.7457026222076 3.8529762360546 4.4056832257033 4.1307040266516 4.5197868622549 5.1263968640569 4.5601474827809 3.8193108639145 3.9655562436844 4.1397723315353 5.1902500965534 5.