# vtk DataFile Version 3.0
d-2__ created by libgimli-v1.1.0
ASCII
DATASET UNSTRUCTURED_GRID
POINTS 570 double
14.5	0	0
14.25	0	0
14.386963504964	-0.201738469428	0
22.399299936458	-0.310870122736	0
22.129824335287	-0.229914148082	0
22.126320781198	-0.518791771445	0
8.472303742627	-0.591754876635	0
8.780507935475	-0.76092407121	0
8.82173151259	-0.349253271447	0
18.663262297679	-0.667179415955	0
18.934786529245	-0.453308328646	0
18.636898038907	-0.29588182328	0
4.016904362632	-0.85330676142	0
4.076038737616	-0.331410355179	0
3.713721571226	-0.470767763626	0
1.89953779852	-0.269343012166	0
1.633800503821	-0.203067612233	0
1.644492760828	-0.441295523531	0
4.368408037607	-0.250833874131	0
4.337474161742	-0.544420985055	0
4.67745607622	-0.378433532554	0
1.406172533733	-0.772361039307	0
1.913288206557	-1.218576310882	0
1.90687689783	-0.651895683444	0
2.5	0	0
2.25	0	0
2.347047126858	-0.185539804102	0
1.374000926997	-0.300418771701	0
1.25	0	0
1.114902662369	-0.201591505098	0
1.067401015567	-0.470108640981	0
5.75	0	0
5.699780065382	-0.324747799653	0
5.924584257371	-0.172748359932	0
0.883560935405	-0.231136840652	0
1	0	0
9	0	0
9.117836368049	-0.253904480787	0
2.625577516194	-0.346770599322	0
17.859079774019	-0.943547525024	0
17.535029634209	-1.703182852412	0
18.338018094476	-1.366069799339	0
19.932263871771	-0.826489183604	0
19.881635677668	-0.346204516721	0
19.622287080959	-0.573770479943	0
1.5	0	0
1.75	0	0
23.25	0	0
23	0	0
23.109690227386	-0.220340974338	0
2.75	0	0
2.142562771237	-0.172460438312	0
2	0	0
23.332392704446	-0.202507275941	0
23.5	0	0
19	0	0
18.75	0	0
18.888143078348	-0.195773419804	0
2.90152418742	-0.185685383897	0
7.612175045312	-0.180627982114	0
7.527150943175	-0.401430797998	0
7.881917737402	-0.30462800112	0
25.630635194756	-0.512020961038	0
25.243766894324	-0.80097755811	0
25.758031115142	-0.952821630144	0
3	0	0
28.84859809239	-0.201276387394	0
29	0	0
28.75	0	0
4	0	0
3.835807353334	-0.199536243303	0
3.106904732949	-0.178783649348	0
29.25	0	0
29.092446172194	-0.305987136665	0
13.5	0	0
13.667851890428	-0.185102765244	0
13.75	0	0
3.75	0	0
14.407363653886	-0.441423674912	0
14.125469935998	-0.279652141152	0
4.25	0	0
5.061980176718	-0.407989246181	0
5.335512032876	-0.269401530321	0
5.113979852892	-0.173834924157	0
11.882046000841	-0.812345557852	0
12.478640631525	-1.146569360669	0
12.244190771573	-0.565936619511	0
3.633270844505	-0.195395238442	0
14	0	0
18.378272976509	-0.514977451159	0
5.5	0	0
9.619519097921	-1.16461851757	0
10.030576753886	-1.587265312651	0
9.961661342999	-1.070235523667	0
5.25	0	0
5	0	0
13.157975569138	-0.830425793913	0
13.83833027638	-1.238601004239	0
13.671302359608	-0.710707966059	0
11.325917093147	-0.8366783502	0
11.612143285947	-0.506264798476	0
6	0	0
7	0	0
6.83842404292	-0.188923754932	0
7.11236984822	-0.391746146843	0
6.631875629497	-0.169178192832	0
6.75	0	0
3.21002197083	-0.595267231049	0
3.445510026908	-0.608065324465	0
3.362318141622	-0.306501255187	0
6.120159502895	-0.164221934939	0
4.538525595924	-0.906226152762	0
13.233775457127	-1.737244787017	0
4.5	0	0
16.138065841822	-0.472802517973	0
16.126746690205	-0.221608117926	0
15.859319180798	-0.326402762318	0
26.080401003391	-0.227842452866	0
26.25	0	0
26	0	0
3.019224421113	-0.401469974918	0
8.234901607028	-0.35771789179	0
8.518285578354	-0.242327591839	0
8.328777073389	-0.153008859619	0
7.25	0	0
7.400656881666	-0.195280611572	0
7.5	0	0
5.385509485898	-0.709154879541	0
5.948697127931	-0.745234910621	0
8.75	0	0
8.5	0	0
8.25	0	0
2.214249105773	-0.404278959534	0
2.896561357202	-0.792481120253	0
9.25	0	0
4.920911116561	-0.192028847294	0
9.651670336652	-0.200847798694	0
9.849824537955	-0.19917205686	0
9.75	0	0
10.095049354068	-0.315754204277	0
10	0	0
3.25	0	0
6.738406513564	-0.710129601907	0
7.121614580011	-0.943026074581	0
11.345829942703	-0.314788260019	0
11.25	0	0
11.104427225455	-0.188863495516	0
6.052412255932	-0.372556729023	0
6.373371846535	-0.274163514827	0
10.25	0	0
10.380281579003	-0.241092027437	0
10.5	0	0
10.75	0	0
10.909079077441	-0.189427130481	0
11	0	0
6.25	0	0
6.5	0	0
4.75	0	0
3.5	0	0
10.672815698565	-0.318467932684	0
10.772487906066	-0.787092734739	0
11.020900486567	-0.439266778492	0
8	0	0
7.75	0	0
11.5	0	0
11.619450354737	-0.231443672836	0
11.75	0	0
8.139317726831	-0.163309591658	0
12.25	0	0
12.158949464947	-0.235415698299	0
12.412455385193	-0.275030800337	0
12.929165084344	-0.221336108042	0
12.686337592177	-0.258437422252	0
12.900449535554	-0.462768612232	0
12.5	0	0
9.405755833308	-0.325979504745	0
9.111697192308	-0.594170467817	0
9.457257345083	-0.753685223931	0
18.101369157139	-0.618560521812	0
18.336839281097	-0.861122419318	0
10.385948631267	-0.570640149046	0
9.5	0	0
13.411260455969	-0.342646276848	0
12.643108055516	-0.590179775368	0
13.137744715761	-0.195204172124	0
13	0	0
21.25	0	0
21.358341816502	-0.326561417551	0
21.5	0	0
13.816492716597	-0.40394453634	0
20.25	0	0
20.423452336785	-0.313445603959	0
20.5	0	0
17.789350393153	-0.390447709085	0
17.987794057246	-0.401472255242	0
17.881276545163	-0.206424156589	0
19.564465692234	-0.270867872644	0
19.290725118801	-0.49926248604	0
16.392319441256	-0.29915360323	0
19.443730892406	-0.923508713428	0
20.457987075478	-0.803203365193	0
20.167450719332	-0.505159975143	0
0.103762538371	-0.253013629949	0
0.267057015134	-0.483604909932	0
0.374713194419	-0.2320817565	0
13.25	0	0
17.415572543912	-0.230682214253	0
17.5	0	0
17.25	0	0
18.108153655084	-0.208141099276	0
18.25	0	0
18	0	0
15.75	0	0
15.544586046819	-0.246453491997	0
15.122708481244	-0.193620038745	0
15.25	0	0
15	0	0
19.75	0	0
24.149237782749	-0.319013340846	0
23.842766599446	-0.577371105011	0
24.183995039967	-0.73159476451	0
13.871646321742	-0.17394291424	0
23.862588150518	-0.245417872715	0
16.84024277193	-0.203626765466	0
16.704049384397	-0.435508179396	0
17.112673188265	-0.38804641709	0
24.75	0	0
24.832880292394	-0.290571430318	0
25	0	0
16.40158555625	-0.755912194683	0
16.850299990829	-0.757941865332	0
17.75	0	0
23.567455674596	-0.325197491724	0
16.25	0	0
16	0	0
22.645812614293	-0.197864648876	0
22.75	0	0
22.5	0	0
16.75	0	0
17	0	0
24	0	0
26.914424714815	-0.337869958787	0
26.621963281699	-0.624626679172	0
26.977877660759	-0.778408201088	0
26.622424322919	-0.264588309935	0
19.34462271879	-0.199329831305	0
19.25	0	0
19.118057075065	-0.225686869553	0
19.5	0	0
26.75	0	0
27	0	0
27.5	0	0
27.604422363523	-0.298869962794	0
27.75	0	0
17.650384190064	-0.227839036584	0
18.343198956448	-0.236734208617	0
18.5	0	0
24.25	0	0
20.143897114391	-0.233773711865	0
25.5	0	0
25.25	0	0
25.344389320279	-0.31693710653	0
21.059546193318	-0.24845941382	0
20	0	0
25.842927934822	-0.248287716678	0
25.75	0	0
25.613904645132	-0.216025146631	0
21	0	0
11.763551406169	-1.481607093928	0
30.981104050195	-0.5526690913	0
30.873880294509	-0.217692518774	0
30.706626759758	-0.34945139905	0
20.75	0	0
20.85240828135	-0.178025243856	0
23.75	0	0
20.66289882074	-0.189089155251	0
30.204950808504	-0.791758966623	0
30.715535843381	-1.149995259266	0
30.543724897762	-0.572259098027	0
30	0	0
30.180216671806	-0.343473673313	0
30.25	0	0
23.229584388362	-0.458653998547	0
29.5	0	0
29.623391954444	-0.322069028408	0
29.75	0	0
21.618913855927	-0.233585823579	0
21.75	0	0
29.348490380579	-0.521100538161	0
29.36294710412	-0.230601226356	0
22	0	0
22.25	0	0
28.25	0	0
28	0	0
28.129259193923	-0.314252106503	0
28.44374413871	-0.484576386004	0
28.100199615755	-0.812038297775	0
28.649230646972	-0.871769248311	0
28.618403654115	-0.227691192115	0
28.5	0	0
28.387848605749	-0.205892081491	0
29.054768525933	-0.708603081552	0
29.344906532636	-0.846887322836	0
26.327430876245	-0.35930637997	0
10.349120516034	-1.04150119828	0
10.894920134778	-1.514321070539	0
24.59640839418	-0.191760546865	0
12.75	0	0
24.5	0	0
13.102881121377	-0.411296235356	0
25.099388239946	-0.214879887129	0
25.97986022697	-0.52841375324	0
24.398993403151	-0.196312410538	0
17.860840746535	-0.577367743328	0
17.566481510048	-0.529340016102	0
26.5	0	0
16.637148248735	-0.188015807345	0
18.183918302467	-0.396443618316	0
27.159348252167	-0.205297590358	0
27.357530053515	-0.198815038154	0
27.25	0	0
15.060354649709	-1.112587998155	0
15.51532665618	-1.043792149387	0
15.178150912169	-0.713100616689	0
10.051363365948	-0.719159376333	0
14.661248691948	-0.27865166374	0
14.75	0	0
27.868836823455	-0.217301839861	0
31	0	0
30.75	0	0
-0.020273477909	-1.415389842481	0
1.054972770973	-1.487485199502	0
0.512583677021	-1.0438154777	0
0.75	0	0
2.361419414365	-0.794513604096	0
29.890297721653	-0.2433406165	0
30.473599299501	-0.238575611274	0
30.5	0	0
30.660802173874	-0.161931182737	0
28.783812899585	-0.467926883932	0
4.937022539393	-0.72440615077	0
6.696914540879	-0.380672503721	0
7.434272221796	-0.695675918868	0
15.339606453815	-0.166204802571	0
15.281953315711	-0.388999642276	0
11.893544445085	-0.335972898148	0
12	0	0
9.753796445798	-0.478866225926	0
7.720012958977	-0.638314519759	0
21.871398197179	-0.313006985103	0
21.615176662754	-0.521922347305	0
21.856785525528	-0.665128848631	0
20.792152536902	-0.448319093295	0
21.109577821412	-0.527879642114	0
21.360297691811	-0.734200004244	0
15.547854961707	-0.580173571081	0
24.496861814148	-0.467031445896	0
25.067351422649	-0.463427753535	0
24.81263825963	-0.684738154192	0
22.865620821195	-0.218348593093	0
23.443705587002	-0.773171720633	0
27.277617447467	-0.489224417775	0
27.863714790534	-0.471681393437	0
26.239117668995	-0.863279739365	0
29.896797054636	-0.547765129844	0
29.612773839625	-0.699757135752	0
29.867172666547	-0.87444432816	0
29.610354212963	-1.521444655905	0
29.59548165142	-1.071765512911	0
29.115129171034	-1.220660174798	0
31.345359428525	-0.458952144926	0
31.144859415042	-0.241304201582	0
15.919565295974	-0.746550096707	0
16.063006820294	-1.289595303187	0
16.5	0	0
14.900855313538	-0.178071167744	0
14.161016743654	-0.72559708689	0
19.011498044983	-0.834202892304	0
16.760433281999	-1.263698818643	0
17.280361389946	-0.931704507314	0
-0.627742252535	-0.296285438777	0
-1	0	0
-1	-0.5	0
0.625738545692	-0.228405936136	0
0.5	0	0
3.313957665883	-0.865581185485	0
3.619156095452	-0.800599314657	0
[...]
CELL_DATA 986
SCALARS 100.00_0.29 double 1
LOOKUP_TABLE default
9.7535301341683 9.3545082626936 8.4631662969763 7.1684019648046 6.4816906534443 9.4809801099576 8.8891791000306 6.3925422019283 9.8419032932515 8.6107194328828 8.2554884659011 9.3006061959416 8.4919690724871 10.228320554593 10.209285446788 8.3738555826649 4.6321528622036 8.3023068416229 10.251902182207 10.621358865438 10.635011983652 10.036396218358 10.093542297644 9.8082569820269 10.702092571817 9.8315524513393 9.5082589104838 6.5893039584186 9.5920137353422 10.011963131745 8.130265477329 9.4686634534873 10.177648911968 9.8078183647971 7.1375656013191 10.1416403434 11.105673957749 9.2389643270821 5.7887621490036 7.1385846988599 10.701609640248 6.6081353299771 9.9783923295094 4.940434991573 9.6311088949252 8.9414453825001 6.8345599101323 7.0847410124712 9.1185021191734 9.1065868209786 8.5491671918918 6.786140555668 6.4249814132444 9.3403339374557 7.2478055463369 9.5492058069477 4.9508062854782 12.655836777537 8.9280577973657 6.6472338135816 9.8342773084287 8.8616806971943 10.80462385893 10.553732703699 12.886895664946 12.324256958459 7.8020510274998 7.1526547433299 10.673458754456 8.3158948601259 11.273552712933 10.53877071345 10.979234834601 10.856785574738 9.7672856610204 7.5657532798644 10.333424814938 9.8515553747451 12.217787442754 10.94774024681 9.4178606569635 6.2673080782709 9.5583525856611 8.6073450028162 11.655237808338 11.681429800626 8.5288480860687 10.487944272288 13.255475101703 13.123261320298 9.4778896815851 9.5413025153389 8.2510462736545 9.3449334390325 9.0942638615704 10.786795959889 11.218274355691 10.722671867602 10.133780090425 9.3124916085364 12.747884435 9.8998461732226 8.2911328417171 14.444746474686 6.9971540961226 6.0388074475868 9.8870268774788 7.5596449587238 8.6396881841482 8.5546614158151 7.7758864007357 9.7154926103524 8.8666677902545 8.4202848410036 9.4450546114225 11.986368132377 8.472459988748 10.19336266718 9.1462049031589 9.2114984423502 7.426939400448 10.657849088288 8.6470820913728 7.4884710225644 8.113612753982 9.4654650794928 8.1749331777133 7.0583882308868 10.126472583812 9.0107754227816 8.1214629884732 10.347642947605 10.524547304463 10.060381003589 6.8420595010659 9.3027249298511 7.8506391632116 10.463424058224 11.314755020622 8.270395397484 9.7032570000914 7.9905729019447 8.7783015546096 10.034689351283 11.774214675354 11.062606282163 8.6343640444593 6.4861324197689 8.7022056258275 7.4786772977272 11.442389364152 12.543539062495 8.0209526700773 10.845122473245 9.1179785932992 10.863735858889 10.47813754811 7.7865488780516 8.0865655381122 8.1199012566692 12.222975468069 10.137547826473 8.1266215458987 13.283645643326 10.409101256783 8.312952303192 5.5585162019516 8.4462250203493 11.713504982958 9.5041026435101 11.908290473198 10.014973829686 6.1761051800246 7.8323132795881 9.385536572809 9.8139064953541 9.7862028863562 9.099474697229 8.5847438588277 9.4705070634654 10.685953401079 9.2449167997643 9.7108939462489 6.6897657736552 6.8978953270888 11.063419104506 9.8653408090974 10.556027227449 8.7337872628337 6.7550535685605 7.7346435269332 5.9020479747566 9.0053387889834 5.7592242894151 10.224786205559 9.1747833418678 5.8602646506574 9.7885135311707 10.07901014397 9.0712551704405 10.672516093759 9.1110312934843 6.5697355022347 9.0328778271061 9.6124257967051 7.0445874545497 9.380308855704 9.4370394550443 9.2949139220051 10.291017046876 9.0415550785398 10.648456359652 8.5865620144577 7.3529087957345 8.0712233199248 8.1398181949001 5.357658215245 8.3872263696165 5.8456790370555 8.8296809289387 9.4190128614167 10.082838475838 10.480927687432 11.547986807001 9.1364735725587 9.8854749048928 10.040660563036 9.6289332718067 8.683050860679 10.217572044193 9.940852199434 5.3681431868378 9.4872391530568 9.6019931891769 8.6152249014821 10.139947363579 9.274084425666 6.9966341854115 8.9055964119573 8.7408559349651 7.9202114601562 7.487722883381 10.321682366114 9.2316041668239 9.0854996751048 10.685073047919 7.2764685033855 9.3479320379253 8.9541079089518 8.3532718959464 7.1940900579934 8.1533525765788 6.8059731368903 9.3845723903158 10.019578018471 7.0819853728217 9.5908551104453 9.4655942582683 10.277101360224 7.4844929466644 8.9627329763998 8.7429499813619 10.678994688954 9.5517463049223 7.6116447666232 11.282582386399 8.0085195017234 9.715902720126 6.8065102933205 7.2487616937895 9.0097601014023 10.066917393986 9.0677402165391 8.855702354951 9.7044289566359 10.390962562817 7.5455574463771 8.8580099543059 9.600275451429 8.3344479870414 8.0269546067705 9.5600055696599 10.915771124977 10.486159945557 6.8180833963042 10.737996696304 9.4779586169806 11.230592461958 12.651815610243 10.142582034917 8.4391144305547 8.0322251774308 7.6496586498352 10.133525952388 8.6287051924758 10.672325915267 8.3010892637735 9.8338851638628 12.582765462623 9.3821602313311 6.9168850478025 9.9680848523182 12.114330332249 10.57819017842 6.4212661957922 7.8656868660517 9.282133844176 10.068085596493 8.9212355969566 9.9562560270383 9.5349288442126 10.023871597759 8.1812366784332 8.6400752593043 8.8952243986267 8.2008682330823 9.9184463106548 7.5030465790825 7.7313292157759 9.9282831961552 8.3376977079553 9.3752997307572 8.2114680478476 7.7944239074829 8.5824361941274 8.4970061216815 11.008886339718 7.1475603452539 6.3205812057398 4.8534153435341 8.1985482388411 7.1586872174873 8.7998253276504 8.9675057959607 7.8911604444044 9.2324026936373 8.7392535774103 9.567210991306 8.0218198031592 9.6131952066461 5.2753520627876 5.7054927406685 11.532817548963 9.5496652577306 10.250102520736 9.6861504596051 10.509368159046 12.149991450803 9.6686246293497 7.0677314489296 8.8696104321702 6.5204939438791 9.3403378427712 5.886213823874 6.9940557972871 6.5109140063978 6.3505885171339 7.8009288258311 6.2541681068373 8.1053103332624 7.5236626290342 5.5083171262089 7.6536687455547 8.6838809856597 9.9923259297772 7.0817102440281 6.2286314181997 5.6993407717888 7.3279782679897 10.133719151372 9.9904497889646 7.5955342592175 7.2113871770002 6.3703706560762 7.7804506722416 8.9834080628144 7.5107122312997 10.284004424143 10.123815413155 6.2996821425533 5.445293860992 6.9872243979748 8.9766622115204 8.7596797421922 11.58561723238 13.937026327963 8.5102580622813 9.8555241100324 6.992011685721 11.170560118762 8.6670454326266 7.9008117281146 5.915128307061 9.4624147103169 7.8009417981254 9.6354275880962 7.1740477093041 8.8701819738836 8.0490684325191 8.9015870719733 10.273713182841 10.584400808623 9.3285621531354 7.602605326817 6.2268171428469 11.746724555545 6.1706078258489 9.3913976846452 10.565777247782 7.3788099780044 11.292126270165 8.6038836982417 7.5985307479339 7.8085765942503 9.395466148674 8.0463278141454 6.9388430365988 7.0353992454121 5.8108014145751 7.1282633360294 6.2782773923432 9.8633375991329 8.9904440656898 6.9363404011647 7.2943676039863 8.0669166530451 6.5582951361268 6.7614597939305 7.8241510775796 7.0480952806316 7.4388364697916 10.676402364084 9.5533977596363 8.6845372401876 8.1444404965445 9.1901755107791 5.3701674494568 7.8681121693702 5.0272330533979 7.5598959499528 5.4398413772582 7.6397172015655 9.313396280278 8.8395766054134 5.5438375788604 8.4423960335303 4.6508178644548 8.0647415842762 6.5767589849616 7.1212993190294 9.8913233204649 10.144426642364 10.267557804031 6.9617293770586 5.5992329615807 4.3934553251507 7.1868089163139 9.7297123248479 8.0509825687762 8.1942069713817 7.7216265550745 8.2234927765794 8.2861651235132 7.5874260462779 6.7104504057376 4.9315336091743 6.1037242094634 6.9655027111078 5.6156474138098 5.099389835888 5.7735386476784 9.2424837429207 6.8339497824432 4.9968228880175 4.4398584243717 10.00101277873 7.70098757501 7.3858496180224 6.8890174278413 5.7355843389069 6.7929515290988 5.5531696772845 5.6148330415943 10.062574383278 8.1406663298614 7.0088639178381 7.5627676001401 10.101297759068 7.4466434034513 7.5215951344357 4.7897091672798 8.7588607273121 10.222949063595 10.414845538145 6.6498900097001 5.8655893803025 4.8088109682992 4.0408271878821 6.528542822464 8.7367851875062 6.5264268707716 6.6546255580137 5.3479863795673 6.3739894674153 7.9976790090033 10.558636232029 5.4825162321299 9.0000615883448 10.468983651241 4.2290962149182 8.2190168922596 13.558124689203 9.287315657887 5.4802182751744 8.1079359939504 7.8821019332646 6.4888810905722 5.8748668653843 5.1514654721217 9.4782620803008 9.4569489144437 5.1402254905422 7.7119378039059 7.4925915187412 5.9506388250334 5.5943707043866 4.8284785111824 9.5962191129018 8.5686460574077 8.0079252055658 6.7449389553247 8.0852606012917 7.4211803213628 8.4705983093683 6.7267024833341 7.9137132032489 9.2537863741674 8.7330392850348 5.0330634682443 3.8588337591129 7.756640321985 5.988990612613 8.0747245752167 8.9348981579432 5.3178065751525 8.6407068098102 3.9244753622609 5.8558912569981 3.752673922319 4.3908987671161 7.8353456736253 5.568787056247 6.6038853930557 5.6302037261156 7.8226276175674 7.4495967381444 6.1579875135485 7.50544096159 5.374703659849 6.0719837261908 6.3416846350232 5.8948442643901 7.8463837423669 5.7706183489276 6.8349487991817 9.0794173055532 5.4119621612546 4.7812515972256 7.1448409309762 6.7106149957305 10.312245229421 5.7661227825991 8.1023617725883 7.0828795379485 9.2952763547214 9.0657636809113 5.5885779437506 3.9930551242619 7.7790566780826 6.7936647560435 6.4000574843122 6.5916217931038 10.492000322923 7.8157271420084 5.1223818991069 7.5181739938239 9.5192902574814 7.8663391322639 8.2802203245839 7.3026969169978 7.6260963523843 6.6790974194891 4.0987929313325 6.3408145181375 4.3590313683588 7.8934120224101 7.0040854387406 6.7583588433115 5.6496828189017 6.4541185527573 7.2477896349493 7.0021724324516 7.0655333533678 5.8544595949363 4.7206331152635 3.9426917574782 4.9532854861133 6.6757662064676 9.2475721924076 6.9700315741188 6.2092696776947 6.6053223114222 5.3499162371924 10.924417605126 5.1125390886561 10.155340450875 7.9242218950574 3.910279776519 8.3132488040241 7.9782011504448 6.7757518950129 8.1032919908947 6.9845740352829 5.7249688349461 5.788990508061 5.3267367051754 7.0335598771993 6.6155172471059 4.0719946301139 4.9270214952441 4.266569128393 5.4366695379392 4.7633729188311 8.814376878957 5.3614657137592 8.0581320212198 4.8002322850118 4.900457504679 4.9792530098479 7.2962114332648 4.3906941079281 4.4527781625955 6.4526842549806 4.8802561050164 3.8519957027039 5.6528743736096 8.6845575153272 8.4560459146114 6.742176348096 4.4822817818106 4.9500716113716 4.555327214344 7.5370191479989 6.6539109469633 7.4143563361451 6.6886184977438 8.6437272361847 8.1930072310499 5.4065000127643 8.2392025724307 5.5859757590661 8.0708048237171 5.6843134824102 7.591166013578 8.4109786264062 6.5722826511296 7.623551102066 7.2557467582471 7.5600411670867 8.0707605690317 8.2691759990595 6.9102813702298 7.7033631917504 4.1968846581632 5.4262486737077 7.8159963653385 4.657866313948 8.9617578999833 6.7000011319268 5.9700328950737 6.0244407270449 6.1924345404047 5.2469818810139 4.8478720449722 4.7959837940928 4.7246394033788 4.8736095189628 9.5368522024074 8.8488713504022 9.6683887525106 9.1782380030136 4.7464496229024 3.7440417926657 4.9738989547071 5.4113014204312 5.8921190099751 5.3920925562262 5.5905539148515 5.0571262436088 5.8910550973886 6.1497528942866 5.946740173019 5.8278297823953 5.9908284679475 6.4438287735162 5.5205274687913 5.1924963571043 7.4162200440324 7.2811172847945 4.6364730101249 3.5500522582433 3.4759461622932 4.323327547966 4.0175354201739 6.6870500329056 5.6265509693595 6.6924768919245 6.1856267688198 10.826677062326 10.85365359773 3.9904990885338 4.4593815676439 7.0686542555733 5.3216304593439 3.8108684461945 3.9333921017181 5.060681063644 6.7149231194332 8.9433949415958 6.2230121125622 7.2191177703673 5.0357834294502 5.1629201659514 9.1127485002805 4.8277663845651 6.15695940402 9.8025470033131 4.8363472844496 4.2055758369553 7.1563570070414 7.6977278590145 5.0168680258108 4.4630473524039 4.4373500261921 6.0499169516775 4.0054064643963 4.9107619731219 3.6971129551179 3.6511768664374 4.0817316265429 8.2175483341367 4.5969444766773 5.4750349131828 4.6119508551732 5.1614639858439 4.3635901682546 5.3216033741899 7.9665357519159 3.6926798911718 6.062708975759 3.5457192377717 3.9928488272101 5.0622599398348 4.2461715568872 3.8757219163144 3.9166678486055 4.3725495130914 4.2181581315463 4.6426856609332 3.9017665580454 7.031961526199 4.892458015737 3.7684182965431 4.1646536713135 4.7317235503056 4.706223552333 6.7128908165769 6.8647877869211 6.4196846911842 6.8666373402014 6.0969868183317 6.4576461179407 5.769171863911 5.8503775329125 6.3774704684881 6.2150693812903 5.2353537735602 5.7433107888517 5.9440767079891 6.3162132798431 5.9028044031968 3.5323429884131 4.5687577567845 5.5141501281276 4.5684944961585 4.3433001208964 3.9604524428362 4.0861659946745 3.7382577318185 4.3920354027994 3.8951574282109 4.3054043030508 4.8081002289169 10.382236052353 4.3436602992455 5.2266867626877 4.9432674327963 8.9061772234567 7.2366776251015 3.8478851710888 3.7601778308224 3.5332223051194 4.4254447945373 4.881730064134 11.163649710298 3.7708215909201 4.1267324940482 4.3327937875797 3.5201569122784 4.6023334992546 5.5097026567564 4.8509637994324 4.7748570465969 3.9738242946506 4.7906782366988 4.2232163653031 3.7506887316314 4.5303627808893 3.5544019275085 3.7831640096259 4.5445745851231 4.361124284799 3.4789680135449 3.7537008413819 3.4617286633618 3.6148655458526 3.5319200394469 3.5467242865935 3.664450789162 4.2751034953766 4.215085848457 5.3161699887374 5.3909463655361 3.8293337640715 3.5597278404749 3.4807951232932 4.2277966937873 3.5914300995551 3.5783206120592 3.6308220305979 3.6371674353982 3.6103791155791 3.8624913659938 3.6145377367704 4.3244034610464 3.3931439902127 3.5545533288471 4.1278059363164 3.9797177474709 3.453119934985 3.4374984614695 3.6170568809544 3.6490525337028 3.4604027142006 3.4883895221844 3.4912108949324 3.5788422724074 3.5781718661614 3.5710597143037 3.9473384820521 3.630992301095 3.7066659427991 3.4789446671822 4.23343303169 3.4775481253729 3.5743484285537 3.4168122371203 3.4113964898264 3.4588791161522 3.4651021575311 3.5714915446662 3.6185207991476 3.6550120395963 4.35740765201 3.5350816299898 3.900920809301 3.4252978402485 3.5071825952459 3.7162624279882 4.1561786993149 3.6234832652743 3.5594418467772 3.4221355703943 4.4493480626101 3.8245529388161 4.1765061760278 3.9754534923252 3.5663264744621 3.5714430344551 3.527878771139 3.4343374157158 3.9250500967892 3.7228760432955 3.7002459600212 3.7100847367179 3.9862937620125 3.7639010735383 4.1490094388968 3.4583269705367 3.6498687604019 4.4353452444063 4.2766303164864 3.8345472053586 3.6028672357218 3.9708525155118 3.4417451079976 3.8165140584296 3.632329558918 4.1804082315048 3.6737729332521 3.809605421685 4.3374652848474 3.6805250673489 4.3233237069683 3.8746756913178 3.7931100379931 4.100284675311 4.2141114746519 4.1980359383242 3.8298379228807 4.0860043817276 3.6137836774838 3.5975771250168 3.5893275871739 3.6013040131265 3.7414909521087 4.3309642231002 4.1057860341896 4.0325108822906 3.8115870745105 4.0643936302726 4.0064991208657 4.2824904710023 4.4883160329741 4.3155547144074 3.7601187498161 3.7073503111693 3.6967499150192 3.8457882278906 4.1464797720429 3.5606869932088 3.7333589644129 3.9469300064132 3.7270526636578 3.8931068397682 3.7521045983263 4.070001887937 4.1182278829102 4.1707255940189 4.0215314683818 4.2577572015244 4.386424713017 4.2690499515375 4.2523164542621 4.1793782934866 4.341109545013 4.3866854791929 4.3305781487283 4.2701823050233 3.9555964432265 3.7053083106444 4.3723046838632 4.0193245576697 3.8470696963933 3.9814319622555 4.1011361206359 4.2580560213056 3.9921888838254 4.1094250892487 4.3159753088917 4.266325223651 4.3412025790331 4.3337978007069 4.1603767278142 4.3764590610686 4.3292296344316 
SCALARS 200.00_0.61 double 1
LOOKUP_TABLE default