# vtk DataFile Version 3.0
d-2__ created by libgimli-v1.1.0
ASCII
DATASET UNSTRUCTURED_GRID
POINTS 570 double
14.5	0	0
14.25	0	0
14.386963504964	-0.201738469428	0
22.399299936458	-0.310870122736	0
22.129824335287	-0.229914148082	0
22.126320781198	-0.518791771445	0
8.472303742627	-0.591754876635	0
8.780507935475	-0.76092407121	0
8.82173151259	-0.349253271447	0
18.663262297679	-0.667179415955	0
18.934786529245	-0.453308328646	0
18.636898038907	-0.29588182328	0
4.016904362632	-0.85330676142	0
4.076038737616	-0.331410355179	0
3.713721571226	-0.470767763626	0
1.89953779852	-0.269343012166	0
1.633800503821	-0.203067612233	0
1.644492760828	-0.441295523531	0
4.368408037607	-0.250833874131	0
4.337474161742	-0.544420985055	0
4.67745607622	-0.378433532554	0
1.406172533733	-0.772361039307	0
1.913288206557	-1.218576310882	0
1.90687689783	-0.651895683444	0
2.5	0	0
2.25	0	0
2.347047126858	-0.185539804102	0
1.374000926997	-0.300418771701	0
1.25	0	0
1.114902662369	-0.201591505098	0
1.067401015567	-0.470108640981	0
5.75	0	0
5.699780065382	-0.324747799653	0
5.924584257371	-0.172748359932	0
0.883560935405	-0.231136840652	0
1	0	0
9	0	0
9.117836368049	-0.253904480787	0
2.625577516194	-0.346770599322	0
17.859079774019	-0.943547525024	0
17.535029634209	-1.703182852412	0
18.338018094476	-1.366069799339	0
19.932263871771	-0.826489183604	0
19.881635677668	-0.346204516721	0
19.622287080959	-0.573770479943	0
1.5	0	0
1.75	0	0
23.25	0	0
23	0	0
23.109690227386	-0.220340974338	0
2.75	0	0
2.142562771237	-0.172460438312	0
2	0	0
23.332392704446	-0.202507275941	0
23.5	0	0
19	0	0
18.75	0	0
18.888143078348	-0.195773419804	0
2.90152418742	-0.185685383897	0
7.612175045312	-0.180627982114	0
7.527150943175	-0.401430797998	0
7.881917737402	-0.30462800112	0
25.630635194756	-0.512020961038	0
25.243766894324	-0.80097755811	0
25.758031115142	-0.952821630144	0
3	0	0
28.84859809239	-0.201276387394	0
29	0	0
28.75	0	0
4	0	0
3.835807353334	-0.199536243303	0
3.106904732949	-0.178783649348	0
29.25	0	0
29.092446172194	-0.305987136665	0
13.5	0	0
13.667851890428	-0.185102765244	0
13.75	0	0
3.75	0	0
14.407363653886	-0.441423674912	0
14.125469935998	-0.279652141152	0
4.25	0	0
5.061980176718	-0.407989246181	0
5.335512032876	-0.269401530321	0
5.113979852892	-0.173834924157	0
11.882046000841	-0.812345557852	0
12.478640631525	-1.146569360669	0
12.244190771573	-0.565936619511	0
3.633270844505	-0.195395238442	0
14	0	0
18.378272976509	-0.514977451159	0
5.5	0	0
9.619519097921	-1.16461851757	0
10.030576753886	-1.587265312651	0
9.961661342999	-1.070235523667	0
5.25	0	0
5	0	0
13.157975569138	-0.830425793913	0
13.83833027638	-1.238601004239	0
13.671302359608	-0.710707966059	0
11.325917093147	-0.8366783502	0
11.612143285947	-0.506264798476	0
6	0	0
7	0	0
6.83842404292	-0.188923754932	0
7.11236984822	-0.391746146843	0
6.631875629497	-0.169178192832	0
6.75	0	0
3.21002197083	-0.595267231049	0
3.445510026908	-0.608065324465	0
3.362318141622	-0.306501255187	0
6.120159502895	-0.164221934939	0
4.538525595924	-0.906226152762	0
13.233775457127	-1.737244787017	0
4.5	0	0
16.138065841822	-0.472802517973	0
16.126746690205	-0.221608117926	0
15.859319180798	-0.326402762318	0
26.080401003391	-0.227842452866	0
26.25	0	0
26	0	0
3.019224421113	-0.401469974918	0
8.234901607028	-0.35771789179	0
8.518285578354	-0.242327591839	0
8.328777073389	-0.153008859619	0
7.25	0	0
7.400656881666	-0.195280611572	0
7.5	0	0
5.385509485898	-0.709154879541	0
5.948697127931	-0.745234910621	0
8.75	0	0
8.5	0	0
8.25	0	0
2.214249105773	-0.404278959534	0
2.896561357202	-0.792481120253	0
9.25	0	0
4.920911116561	-0.192028847294	0
9.651670336652	-0.200847798694	0
9.849824537955	-0.19917205686	0
9.75	0	0
10.095049354068	-0.315754204277	0
10	0	0
3.25	0	0
6.738406513564	-0.710129601907	0
7.121614580011	-0.943026074581	0
11.345829942703	-0.314788260019	0
11.25	0	0
11.104427225455	-0.188863495516	0
6.052412255932	-0.372556729023	0
6.373371846535	-0.274163514827	0
10.25	0	0
10.380281579003	-0.241092027437	0
10.5	0	0
10.75	0	0
10.909079077441	-0.189427130481	0
11	0	0
6.25	0	0
6.5	0	0
4.75	0	0
3.5	0	0
10.672815698565	-0.318467932684	0
10.772487906066	-0.787092734739	0
11.020900486567	-0.439266778492	0
8	0	0
7.75	0	0
11.5	0	0
11.619450354737	-0.231443672836	0
11.75	0	0
8.139317726831	-0.163309591658	0
12.25	0	0
12.158949464947	-0.235415698299	0
12.412455385193	-0.275030800337	0
12.929165084344	-0.221336108042	0
12.686337592177	-0.258437422252	0
12.900449535554	-0.462768612232	0
12.5	0	0
9.405755833308	-0.325979504745	0
9.111697192308	-0.594170467817	0
9.457257345083	-0.753685223931	0
18.101369157139	-0.618560521812	0
18.336839281097	-0.861122419318	0
10.385948631267	-0.570640149046	0
9.5	0	0
13.411260455969	-0.342646276848	0
12.643108055516	-0.590179775368	0
13.137744715761	-0.195204172124	0
13	0	0
21.25	0	0
21.358341816502	-0.326561417551	0
21.5	0	0
13.816492716597	-0.40394453634	0
20.25	0	0
20.423452336785	-0.313445603959	0
20.5	0	0
17.789350393153	-0.390447709085	0
17.987794057246	-0.401472255242	0
17.881276545163	-0.206424156589	0
19.564465692234	-0.270867872644	0
19.290725118801	-0.49926248604	0
16.392319441256	-0.29915360323	0
19.443730892406	-0.923508713428	0
20.457987075478	-0.803203365193	0
20.167450719332	-0.505159975143	0
0.103762538371	-0.253013629949	0
0.267057015134	-0.483604909932	0
0.374713194419	-0.2320817565	0
13.25	0	0
17.415572543912	-0.230682214253	0
17.5	0	0
17.25	0	0
18.108153655084	-0.208141099276	0
18.25	0	0
18	0	0
15.75	0	0
15.544586046819	-0.246453491997	0
15.122708481244	-0.193620038745	0
15.25	0	0
15	0	0
19.75	0	0
24.149237782749	-0.319013340846	0
23.842766599446	-0.577371105011	0
24.183995039967	-0.73159476451	0
13.871646321742	-0.17394291424	0
23.862588150518	-0.245417872715	0
16.84024277193	-0.203626765466	0
16.704049384397	-0.435508179396	0
17.112673188265	-0.38804641709	0
24.75	0	0
24.832880292394	-0.290571430318	0
25	0	0
16.40158555625	-0.755912194683	0
16.850299990829	-0.757941865332	0
17.75	0	0
23.567455674596	-0.325197491724	0
16.25	0	0
16	0	0
22.645812614293	-0.197864648876	0
22.75	0	0
22.5	0	0
16.75	0	0
17	0	0
24	0	0
26.914424714815	-0.337869958787	0
26.621963281699	-0.624626679172	0
26.977877660759	-0.778408201088	0
26.622424322919	-0.264588309935	0
19.34462271879	-0.199329831305	0
19.25	0	0
19.118057075065	-0.225686869553	0
19.5	0	0
26.75	0	0
27	0	0
27.5	0	0
27.604422363523	-0.298869962794	0
27.75	0	0
17.650384190064	-0.227839036584	0
18.343198956448	-0.236734208617	0
18.5	0	0
24.25	0	0
20.143897114391	-0.233773711865	0
25.5	0	0
25.25	0	0
25.344389320279	-0.31693710653	0
21.059546193318	-0.24845941382	0
20	0	0
25.842927934822	-0.248287716678	0
25.75	0	0
25.613904645132	-0.216025146631	0
21	0	0
11.763551406169	-1.481607093928	0
30.981104050195	-0.5526690913	0
30.873880294509	-0.217692518774	0
30.706626759758	-0.34945139905	0
20.75	0	0
20.85240828135	-0.178025243856	0
23.75	0	0
20.66289882074	-0.189089155251	0
30.204950808504	-0.791758966623	0
30.715535843381	-1.149995259266	0
30.543724897762	-0.572259098027	0
30	0	0
30.180216671806	-0.343473673313	0
30.25	0	0
23.229584388362	-0.458653998547	0
29.5	0	0
29.623391954444	-0.322069028408	0
29.75	0	0
21.618913855927	-0.233585823579	0
21.75	0	0
29.348490380579	-0.521100538161	0
29.36294710412	-0.230601226356	0
22	0	0
22.25	0	0
28.25	0	0
28	0	0
28.129259193923	-0.314252106503	0
28.44374413871	-0.484576386004	0
28.100199615755	-0.812038297775	0
28.649230646972	-0.871769248311	0
28.618403654115	-0.227691192115	0
28.5	0	0
28.387848605749	-0.205892081491	0
29.054768525933	-0.708603081552	0
29.344906532636	-0.846887322836	0
26.327430876245	-0.35930637997	0
10.349120516034	-1.04150119828	0
10.894920134778	-1.514321070539	0
24.59640839418	-0.191760546865	0
12.75	0	0
24.5	0	0
13.102881121377	-0.411296235356	0
25.099388239946	-0.214879887129	0
25.97986022697	-0.52841375324	0
24.398993403151	-0.196312410538	0
17.860840746535	-0.577367743328	0
17.566481510048	-0.529340016102	0
26.5	0	0
16.637148248735	-0.188015807345	0
18.183918302467	-0.396443618316	0
27.159348252167	-0.205297590358	0
27.357530053515	-0.198815038154	0
27.25	0	0
15.060354649709	-1.112587998155	0
15.51532665618	-1.043792149387	0
15.178150912169	-0.713100616689	0
10.051363365948	-0.719159376333	0
14.661248691948	-0.27865166374	0
14.75	0	0
27.868836823455	-0.217301839861	0
31	0	0
30.75	0	0
-0.020273477909	-1.415389842481	0
1.054972770973	-1.487485199502	0
0.512583677021	-1.0438154777	0
0.75	0	0
2.361419414365	-0.794513604096	0
29.890297721653	-0.2433406165	0
30.473599299501	-0.238575611274	0
30.5	0	0
30.660802173874	-0.161931182737	0
28.783812899585	-0.467926883932	0
4.937022539393	-0.72440615077	0
6.696914540879	-0.380672503721	0
7.434272221796	-0.695675918868	0
15.339606453815	-0.166204802571	0
15.281953315711	-0.388999642276	0
11.893544445085	-0.335972898148	0
12	0	0
9.753796445798	-0.478866225926	0
7.720012958977	-0.638314519759	0
21.871398197179	-0.313006985103	0
21.615176662754	-0.521922347305	0
21.856785525528	-0.665128848631	0
20.792152536902	-0.448319093295	0
21.109577821412	-0.527879642114	0
21.360297691811	-0.734200004244	0
15.547854961707	-0.580173571081	0
24.496861814148	-0.467031445896	0
25.067351422649	-0.463427753535	0
24.81263825963	-0.684738154192	0
22.865620821195	-0.218348593093	0
23.443705587002	-0.773171720633	0
27.277617447467	-0.489224417775	0
27.863714790534	-0.471681393437	0
26.239117668995	-0.863279739365	0
29.896797054636	-0.547765129844	0
29.612773839625	-0.699757135752	0
29.867172666547	-0.87444432816	0
29.610354212963	-1.521444655905	0
29.59548165142	-1.071765512911	0
29.115129171034	-1.220660174798	0
31.345359428525	-0.458952144926	0
31.144859415042	-0.241304201582	0
15.919565295974	-0.746550096707	0
16.063006820294	-1.289595303187	0
16.5	0	0
14.900855313538	-0.178071167744	0
14.161016743654	-0.72559708689	0
19.011498044983	-0.834202892304	0
16.760433281999	-1.263698818643	0
17.280361389946	-0.931704507314	0
-0.627742252535	-0.296285438777	0
-1	0	0
-1	-0.5	0
0.625738545692	-0.228405936136	0
0.5	0	0
3.313957665883	-0.865581185485	0
3.619156095452	-0.800599314657	0
[...]
CELL_DATA 986
SCALARS 160.00_0.23 double 1
LOOKUP_TABLE default
10.83379403698 9.5581942536405 8.4893284128158 7.9253401286043 7.1739605321262 9.9846601467116 8.7775136047599 6.4318271500413 10.53549772717 9.7286889047427 9.0404531083987 10.090029330174 9.4647483464527 10.3723443418 10.603842913287 9.7923512688217 5.0238200234616 8.5136007821616 11.286484370392 11.245662309625 10.840370298799 10.435321328082 10.516704237257 10.625072701266 10.524249438138 10.471011198588 9.8646692841452 6.8071228986705 10.55591188386 10.175312981026 8.9777874081439 10.003841839132 10.11991500128 10.772000401975 8.7395315149474 10.547045591487 10.037824521429 9.5373122085223 6.6215549938744 8.6570296312732 11.81664443313 7.5856517509289 10.423190450848 5.4084224468616 9.9709053539344 9.5569811908882 6.9421882948826 7.753706137696 9.9278406948971 10.116076103068 9.2739172653285 8.4623454849248 7.137411314789 9.9163495725211 7.4251516006699 10.530361562162 5.2915450484255 10.846251135407 9.4877539778367 8.6809662001528 9.9567081090771 9.442324486304 10.554858387313 11.491853275026 10.787930999848 10.464473873187 8.0244387170255 7.7583961761917 11.111300757078 8.806144334885 11.64794486438 10.419105322954 10.01454654638 10.588206318041 10.05883779566 8.0105292906117 9.9985273225544 10.062781531073 11.101690053137 10.87544977628 9.3802671140329 6.9633033392289 10.34533228658 9.1004183553929 11.836239760652 11.848324023015 9.3373224457896 11.207319254177 10.384678557711 11.305410811627 9.8882456197818 10.760052508707 8.5606269225115 9.9076175420429 9.2458675587833 10.727280380304 11.101950077455 10.922993466307 10.196893922949 10.407309514194 10.020451655862 11.32828973982 9.6453915024679 10.329956380391 7.7965442438475 6.9822364142114 10.036492198382 8.901129517901 8.7274782012115 9.2681002736144 8.7761703939139 10.965206071195 9.1924560477926 9.8340415083135 9.5273194201565 12.534701300928 9.1959729561443 11.110957391815 9.3665886814477 9.7667563799143 7.7359716752184 11.482894894447 8.8775663382397 8.1084189231627 8.7877559887783 10.23502761876 8.502855894391 8.2521597359177 11.317153372195 9.6448230969842 9.3158886540526 10.118058155521 10.342327867694 10.911048666767 7.5062370559611 9.8744222778815 8.6934273010671 10.372123751445 11.19787981182 8.2458447586724 9.7436695143042 8.7282804757848 10.27375406763 10.250364917276 12.353250594791 11.226481536037 9.7274143667003 7.0332834649511 9.2331250794829 8.1372152639119 11.679680462302 12.360089073986 8.9841743504811 11.509632161741 9.9334818390869 10.479849311694 10.708894715234 8.9640700041281 9.2801202271121 8.9945438780736 12.171056451238 10.312311499188 9.5627223037126 12.72163284319 10.319612915509 9.8284128898753 6.1226494797128 8.0848715690577 11.80868992634 10.284293485992 11.812567035383 11.131226771198 6.8595134184873 8.2740047494744 9.8368842695448 10.111308533395 11.148170480527 10.450627920972 8.8142647889417 9.6155115749249 10.759657948344 9.7443671774811 10.211319725622 7.0353045840388 7.1744781813046 11.159315825722 10.22455207636 10.635307171389 8.8952017580997 7.1446136058838 8.2728900917115 6.2247155827176 9.881371405696 6.5519234923052 10.49461122593 10.221789498103 6.5207625719888 11.31230865109 10.513593054933 9.5224360681761 10.745595261994 9.230080505344 9.5636832612575 9.8671008576101 10.54388643518 7.6528449927375 9.5589435068057 9.8180512128496 9.5436144884673 10.189994300774 9.1078647170612 10.366044918193 9.4916460164367 8.5864603764666 9.2578105111344 9.3413565838099 6.1615356984378 9.3700983293272 6.3778925254144 9.4288301714808 9.6276422740015 10.346630150613 10.731149046166 12.996834795365 9.8300000856403 10.367682319414 10.129968049845 10.284014612637 8.8840866581784 11.095310861465 8.1029384214532 5.7245852173552 9.5778025782563 9.6367527918144 9.2583471779359 10.265748008205 9.7830285526285 7.2187581537893 9.9479775422342 8.834192844982 8.5358086311149 8.2081969556188 10.751815319214 9.6897611882164 8.6262731653271 10.174886522683 8.8556090396823 8.3891494706504 8.7410071928678 8.8283717521562 8.1399071352647 9.0222842720827 7.3406059921701 9.5920600817275 9.9926536030156 8.2997766511354 10.859511879148 9.6817491535111 11.29042919187 7.7301694976726 9.5263630459192 8.9449687801843 10.507709889341 9.7532194090561 8.5055527816155 11.085178021815 8.4142378164616 10.448269548647 8.3493790685982 8.4443331872673 9.2904869826919 9.9845626089798 9.5618727028565 9.485340103332 10.002695387 10.296659366266 8.7618467153396 9.5526883263662 10.019753079529 10.131442663666 8.2740663414791 10.441824214368 11.140672197765 10.74032912748 7.3085303906241 11.086233694468 9.9332825609674 11.207215726057 11.498258511039 10.132216692203 8.8648379516972 8.223829458684 8.2705217911326 10.627997240698 9.5464972904284 11.62253441768 9.3464914504507 10.94750674874 11.829272087975 10.222391576762 7.8329739779591 10.903711770397 11.967512544468 10.508804332992 7.6176556517611 8.2949857254832 10.163925252152 10.382988790689 9.4275212693926 9.9922087404247 9.7036342254398 10.214697693666 9.3111323952627 9.4133125892697 9.3377038960309 8.4994543813927 10.163856911585 7.9280531790675 8.5885521558344 10.085980099827 8.9108234930914 9.9002018053085 9.4828369550097 8.7875157354127 8.7791273108472 8.9916613651492 10.85430722773 7.4234697502529 6.9995612028813 5.369352712848 7.4050702485147 7.7754164568243 8.4018939303056 9.6669419257227 8.6203738933773 9.4135326181055 7.8957751915758 10.153389101582 8.2820174307147 10.313037926191 5.9379755130249 6.7201151783753 11.674338630662 10.69329063346 10.483228480972 9.6963629001977 10.043035048321 10.643053262679 10.050934395105 8.2453295112455 9.8154423801692 6.9265944275827 9.0049453603534 6.4123843634086 8.2092115009319 6.6404940607809 6.3728708527213 8.2502363122411 7.7003212105045 9.456422396818 8.6292112392839 6.126055615209 7.69189564534 8.9292123763006 10.087784237566 7.4057990800116 6.5553091327025 6.1640331357209 7.4451643056626 10.148204712471 10.40128567265 8.6671865787154 7.7073121803385 6.8772912740451 8.2094619419276 9.4777157969859 7.8647921767089 10.338737490133 9.8934936220365 7.0863862080807 5.8838259323597 8.1949978740006 9.307296934563 10.378848308707 11.772774796739 10.455569286455 8.949025809173 10.257199609609 7.3393306158405 11.318690183369 8.8449773899792 8.4634852380684 6.8058274682437 9.7723815748441 8.4014825137979 10.149584894179 8.0235551490499 8.8151980518483 9.0449857147563 9.3350368328359 10.749974530987 11.000837475788 9.6642240043317 8.7415136299248 6.7334157940719 11.587564563194 6.9314662109474 9.5093578873461 10.5596749948 8.4344035145478 11.034604883851 8.934637815237 8.7825581135426 8.2360129529748 9.5687071887796 9.1646388095219 7.627336924127 7.5488026719264 6.3043110048376 7.9883962753612 6.5274861767599 10.125327037943 9.3896018729857 7.5534329060302 7.829685546785 9.1502843702915 7.1907417054829 7.1425042801093 8.0910959611524 7.2599147970309 7.7610478635628 10.660367240556 9.6189336872231 8.8557451964548 8.0056276894988 8.0796224583646 6.0185435682886 8.2764600273836 5.3904776847692 8.4086688415067 5.8176050634336 7.8273002622932 9.8234856534631 9.2477464963989 6.1657750747478 9.3460576224225 5.0629621027456 10.218515489333 7.3674933890116 8.0308595503179 10.711559183895 10.567117792681 10.686477871593 7.9414194857908 5.9135916760196 4.6875069878528 7.7584001689033 9.9532814806431 8.1751337345405 9.0324578491388 7.8531308473446 9.2130031359078 8.6107073616734 8.4061143146935 8.0244049068456 5.4509901083649 6.3665019768217 8.0461287033113 6.2700743922941 5.4893585297582 6.4857917512991 9.3891625330799 7.0936049825219 5.5100468534613 4.8363413887845 9.7447603072259 8.1981800462513 8.3252797487406 7.6337315374135 6.0563396312093 7.4240086041214 6.0777223819014 6.277719390295 10.014552748037 8.4476458831813 7.8849922802677 8.4148270853706 10.034184971736 7.6712363920083 8.6869229477183 5.2296335424798 8.854429934785 10.2168849868 10.5389252385 7.753811471726 6.4877905813308 5.129986849103 4.2788610164088 7.162618771818 9.3886966842629 7.2410753292385 7.025327088755 5.9274354334495 7.0179233589534 8.2567207295125 10.717094552568 5.8203417159266 9.3642539529596 10.689167583514 4.523944609199 8.620032350136 11.484068995624 9.5766784652527 5.8857601690534 8.2807250083112 8.7694321721205 6.9245198151422 6.2957762877751 5.4890255441215 9.9294920383808 9.7565916794286 5.5357070075759 8.0875708988682 8.386813071471 6.4442964131164 5.9346924290611 5.1839566757856 9.6311098546132 8.7020696220522 6.8066456513129 7.5983992248118 7.5912288915639 7.8581708983341 8.5906447905544 7.5448493547852 7.3745898103488 9.604470853517 9.025401835311 5.331477684454 3.9238432716403 8.5721503474203 6.1576642160038 9.1225468936312 8.8831285373214 5.7376760494695 9.0795601442469 4.2002684086225 6.639199364847 3.8733488217577 4.6615635343226 8.6027526003942 5.8604327198941 8.6759421156999 5.8065876844711 9.0349316268116 8.4910059982061 6.7529936762108 8.6804403237804 5.4473430160509 6.3152791674875 7.1920293461381 6.5140687804643 8.0634577420415 6.048454009892 7.3449929797741 9.1297801917401 5.6383544709215 5.0394205531384 7.8077683757322 7.1612476906732 10.806650586426 6.6771079694926 9.1464977679542 7.1788345637551 9.6609232723992 9.5401439402177 6.1046138322623 4.2844039147409 8.1688557944927 7.1602299906235 6.9837804567788 7.1569621257105 10.833088124386 8.7798127353604 5.4926791800924 8.2719818901584 9.8537992412996 8.2342784303482 8.486018053375 7.5794601309605 8.0526016140409 7.1151165158734 4.342763104318 7.9345113687378 4.5744965356007 7.9536528249228 8.0625361898135 8.422391520166 6.3631202053559 7.5990545821383 8.2521434675486 7.9357571507948 7.6879235997565 6.3740144970318 5.1224490139455 4.2291187653055 5.3018392848634 7.2972997508127 9.1861281383677 7.3569002051585 6.4769936961781 6.9688355202956 5.6998251124391 11.659558948065 5.5677454245677 10.437425349114 8.7699513490936 4.0691540106384 8.5644615531198 8.5692732382547 7.7097369796164 8.3942013225107 7.3000593606708 6.0816038729238 6.0842421230325 5.7311415239882 7.3566966562741 8.1112189655815 4.1934086914304 5.1912948274693 4.5689061289726 5.6911361173656 5.0483603648525 8.7934243480428 6.0635927395946 8.227801490151 4.9930164783964 5.2148046824544 5.5662886518432 8.039194661275 4.6253627572873 4.5827334893869 6.7922347780912 5.4650152431516 4.0128536283883 5.9524337643884 9.6145375539064 9.1233447507076 7.1068369386268 4.7425542194733 5.3039081675471 4.7606420839511 6.6645488733724 7.1093194370497 6.9428019465506 7.0592545064421 7.0260009024435 7.3678686471059 6.1124945840547 7.0433790993677 6.3026336240813 7.0953311093123 5.8398562160625 6.8816888818721 7.1470738683254 6.2814798150712 6.7232024643032 6.6213787013487 6.6591180129261 6.8893937335717 6.9064362696607 6.4199474547998 6.7093281373307 4.3963848732514 5.7374085922999 8.7713319266713 4.6885663532627 9.6924939990534 7.0064291982964 6.4274995264776 6.4085104501049 6.937749278969 5.6299254119481 5.080394130976 5.0630638140751 5.0458396143291 5.4542064063315 9.6689929513488 11.335967976068 10.480479159819 9.4630148574789 5.2618433042193 3.7787067055453 5.5903353702588 6.0033628472447 6.3719743115734 5.6937114859599 5.995812962057 5.2978250020613 6.2680645854791 6.9134550202599 6.4779200271398 6.452353882809 6.4132518724287 6.5716097751186 6.0166896106358 5.4744683390251 6.6107802802562 6.5638159836494 4.8489385295517 3.6956200788564 3.4880688316378 4.7706822356147 4.241772420947 6.8303976644141 6.168386698557 7.4646464607472 6.5048869604761 10.971016679976 10.75322188935 4.2386622380946 4.7406442531334 8.1545590570431 5.6640764701535 4.0555265905923 4.175897695562 5.3713908313726 7.1170218102057 10.151252567753 6.8217938950313 7.3402611125158 5.5345686284338 5.5997883750706 10.463608773532 5.0895351963707 7.4578095366816 11.741511339844 5.417324926991 4.4532677627215 8.3216823615966 8.4947146512202 5.4404425154016 4.8348644533115 4.7130803981488 6.6032567392338 3.9242273873677 5.325663972832 3.8199270523756 3.7527226565222 4.2804600028498 9.2373959924286 5.0204146569837 5.7498970212912 4.8983708928487 5.3878634534442 4.6516409763185 5.8828180687236 9.1496447794977 3.8831362008742 6.3164815952678 3.5776921327415 4.2055247484011 5.33023277024 4.5369045420873 4.0345216899826 4.306283095477 4.5778306870983 4.4687544003212 5.1286540088756 4.0572323218592 8.1991090730775 5.250252012026 3.936428705706 4.330519288152 5.027552517057 4.9376644171529 7.422135898189 7.2683471863543 8.1463746016941 7.9004529745113 6.8190286568765 7.4324392992002 6.1480319471771 6.6553253591327 7.7559245664049 7.3293750323689 5.6316518499083 6.3606238295181 6.1954957527607 7.7993662614194 6.8917135717695 3.6350154327758 5.133822454837 5.8326812091627 4.6351566594256 4.5710179294784 4.1354303399863 4.2669424839412 4.0078808213358 4.8478948326199 4.0596150801722 4.6861143459491 5.4222455235352 10.757290140226 4.5760878796185 5.4544668251007 5.2783103283086 9.5242499187989 7.7223158455989 3.9725053304686 3.8796614395267 3.6554685468356 4.6262223400821 5.1364942551612 11.393987633504 3.913874460783 4.3578502814077 4.620875619334 3.5128558684194 4.6322478673648 5.5693565667123 5.0129840903828 4.924775206039 4.245914706331 5.1452220872161 4.6975819575745 4.0657277805309 4.9861027553835 3.6448027333084 3.9825860115211 4.6880690750998 4.3145961903876 3.5525452546628 3.8936179294505 3.6183992354222 3.7853087774838 3.7248098383272 3.7043277752333 3.7653516025381 4.6335398391425 4.4343554680664 5.5138337116561 5.7173521741447 3.9438955717085 3.6240753005637 3.5496698243474 4.459480734157 3.6277614208605 3.6638341958839 3.7046957964974 3.7059631394967 3.7203651486697 4.1784353325785 3.8570446928668 4.6613419800926 3.499253853309 3.5125948463379 4.3177134074117 4.207854107201 3.4950171190056 3.4814939701641 3.6993243370754 3.7172031840788 3.6098953936152 3.6762899351734 3.571925469579 3.7146389069617 3.8084636626052 3.6210904143904 4.0606501917904 3.7044061495367 3.7237113920401 3.5386817357549 4.421649917891 3.4998167663705 3.5914027120257 3.5405451230669 3.4705453316709 3.4824680940942 3.5599086943035 3.6268376015457 3.8096324979752 3.6767042080685 4.3844198642199 3.5617203161001 4.0493725069502 3.4432755822373 3.5267748403674 3.8124142743994 4.1607175411134 3.5800663257247 3.5405351128205 3.4549125017713 4.8443653389792 3.9212739337577 4.0905609795975 3.963556007541 3.5662008322334 3.5546397037543 3.5166841679042 3.5083891785033 4.1969193579122 3.6800219481975 3.6334328932602 3.7004727880479 4.3668089865594 3.9570443811845 4.0926517397632 3.4500305341165 3.5979248233416 4.4917296871325 4.1814031466147 3.7886814461893 3.6375988626188 3.9233570229754 3.4438986852091 3.751281776887 3.7360973283939 4.3653454838726 3.635430686119 3.7402986245825 4.2187600349601 3.6642919962133 4.2117402948639 3.7957615653859 3.7629254600015 4.3458015102153 4.4870697940234 4.3194741139825 3.7540828067357 3.9982409183402 3.6019918555338 3.5582371736033 3.5439344655077 3.586675785703 3.7067869308297 4.2530486209064 4.0527168303021 3.9763597280406 3.9335671190268 4.1435792660383 3.938006845031 4.4302683140043 4.4976306050881 4.4235090694281 3.705522543424 3.6734043920388 3.6315821653622 3.7986002564552 4.0644549928668 3.525361957171 3.668156445754 3.925952555713 3.669659695893 3.8143383700816 3.7032114719889 3.9764008887193 4.0209907132082 4.0789608209807 3.9394437428707 4.1939753131118 4.2657603449067 4.1605082948042 4.1418621089664 4.0803342580425 4.2292725836621 4.2626842782764 4.2282091098197 4.1799251210118 3.9025214706659 3.7071360553715 4.3518641864923 3.9371619848099 3.7871116827622 3.9299188252841 4.0363604400997 4.1828961699072 3.9191769301269 4.0428454136663 4.2481335345765 4.1991666242356 4.280281946742 4.2583574387455 4.0874000605493 4.3038837109389 4.2484774181636 
SCALARS 20.00_0.11 double 1
LOOKUP_TABLE default