# vtk DataFile Version 3.0
d-2__ created by libgimli-v1.1.0
ASCII
DATASET UNSTRUCTURED_GRID
POINTS 570 double
14.5	0	0
14.25	0	0
14.386963504964	-0.201738469428	0
22.399299936458	-0.310870122736	0
22.129824335287	-0.229914148082	0
22.126320781198	-0.518791771445	0
8.472303742627	-0.591754876635	0
8.780507935475	-0.76092407121	0
8.82173151259	-0.349253271447	0
18.663262297679	-0.667179415955	0
18.934786529245	-0.453308328646	0
18.636898038907	-0.29588182328	0
4.016904362632	-0.85330676142	0
4.076038737616	-0.331410355179	0
3.713721571226	-0.470767763626	0
1.89953779852	-0.269343012166	0
1.633800503821	-0.203067612233	0
1.644492760828	-0.441295523531	0
4.368408037607	-0.250833874131	0
4.337474161742	-0.544420985055	0
4.67745607622	-0.378433532554	0
1.406172533733	-0.772361039307	0
1.913288206557	-1.218576310882	0
1.90687689783	-0.651895683444	0
2.5	0	0
2.25	0	0
2.347047126858	-0.185539804102	0
1.374000926997	-0.300418771701	0
1.25	0	0
1.114902662369	-0.201591505098	0
1.067401015567	-0.470108640981	0
5.75	0	0
5.699780065382	-0.324747799653	0
5.924584257371	-0.172748359932	0
0.883560935405	-0.231136840652	0
1	0	0
9	0	0
9.117836368049	-0.253904480787	0
2.625577516194	-0.346770599322	0
17.859079774019	-0.943547525024	0
17.535029634209	-1.703182852412	0
18.338018094476	-1.366069799339	0
19.932263871771	-0.826489183604	0
19.881635677668	-0.346204516721	0
19.622287080959	-0.573770479943	0
1.5	0	0
1.75	0	0
23.25	0	0
23	0	0
23.109690227386	-0.220340974338	0
2.75	0	0
2.142562771237	-0.172460438312	0
2	0	0
23.332392704446	-0.202507275941	0
23.5	0	0
19	0	0
18.75	0	0
18.888143078348	-0.195773419804	0
2.90152418742	-0.185685383897	0
7.612175045312	-0.180627982114	0
7.527150943175	-0.401430797998	0
7.881917737402	-0.30462800112	0
25.630635194756	-0.512020961038	0
25.243766894324	-0.80097755811	0
25.758031115142	-0.952821630144	0
3	0	0
28.84859809239	-0.201276387394	0
29	0	0
28.75	0	0
4	0	0
3.835807353334	-0.199536243303	0
3.106904732949	-0.178783649348	0
29.25	0	0
29.092446172194	-0.305987136665	0
13.5	0	0
13.667851890428	-0.185102765244	0
13.75	0	0
3.75	0	0
14.407363653886	-0.441423674912	0
14.125469935998	-0.279652141152	0
4.25	0	0
5.061980176718	-0.407989246181	0
5.335512032876	-0.269401530321	0
5.113979852892	-0.173834924157	0
11.882046000841	-0.812345557852	0
12.478640631525	-1.146569360669	0
12.244190771573	-0.565936619511	0
3.633270844505	-0.195395238442	0
14	0	0
18.378272976509	-0.514977451159	0
5.5	0	0
9.619519097921	-1.16461851757	0
10.030576753886	-1.587265312651	0
9.961661342999	-1.070235523667	0
5.25	0	0
5	0	0
13.157975569138	-0.830425793913	0
13.83833027638	-1.238601004239	0
13.671302359608	-0.710707966059	0
11.325917093147	-0.8366783502	0
11.612143285947	-0.506264798476	0
6	0	0
7	0	0
6.83842404292	-0.188923754932	0
7.11236984822	-0.391746146843	0
6.631875629497	-0.169178192832	0
6.75	0	0
3.21002197083	-0.595267231049	0
3.445510026908	-0.608065324465	0
3.362318141622	-0.306501255187	0
6.120159502895	-0.164221934939	0
4.538525595924	-0.906226152762	0
13.233775457127	-1.737244787017	0
4.5	0	0
16.138065841822	-0.472802517973	0
16.126746690205	-0.221608117926	0
15.859319180798	-0.326402762318	0
26.080401003391	-0.227842452866	0
26.25	0	0
26	0	0
3.019224421113	-0.401469974918	0
8.234901607028	-0.35771789179	0
8.518285578354	-0.242327591839	0
8.328777073389	-0.153008859619	0
7.25	0	0
7.400656881666	-0.195280611572	0
7.5	0	0
5.385509485898	-0.709154879541	0
5.948697127931	-0.745234910621	0
8.75	0	0
8.5	0	0
8.25	0	0
2.214249105773	-0.404278959534	0
2.896561357202	-0.792481120253	0
9.25	0	0
4.920911116561	-0.192028847294	0
9.651670336652	-0.200847798694	0
9.849824537955	-0.19917205686	0
9.75	0	0
10.095049354068	-0.315754204277	0
10	0	0
3.25	0	0
6.738406513564	-0.710129601907	0
7.121614580011	-0.943026074581	0
11.345829942703	-0.314788260019	0
11.25	0	0
11.104427225455	-0.188863495516	0
6.052412255932	-0.372556729023	0
6.373371846535	-0.274163514827	0
10.25	0	0
10.380281579003	-0.241092027437	0
10.5	0	0
10.75	0	0
10.909079077441	-0.189427130481	0
11	0	0
6.25	0	0
6.5	0	0
4.75	0	0
3.5	0	0
10.672815698565	-0.318467932684	0
10.772487906066	-0.787092734739	0
11.020900486567	-0.439266778492	0
8	0	0
7.75	0	0
11.5	0	0
11.619450354736	-0.231443672836	0
11.75	0	0
8.139317726831	-0.163309591658	0
12.25	0	0
12.158949464947	-0.235415698299	0
12.412455385193	-0.275030800337	0
12.929165084344	-0.221336108042	0
12.686337592177	-0.258437422252	0
12.900449535554	-0.462768612232	0
12.5	0	0
9.405755833308	-0.325979504745	0
9.111697192308	-0.594170467817	0
9.457257345083	-0.753685223931	0
18.101369157139	-0.618560521812	0
18.336839281097	-0.861122419318	0
10.385948631267	-0.570640149046	0
9.5	0	0
13.411260455969	-0.342646276848	0
12.643108055516	-0.590179775368	0
13.137744715761	-0.195204172124	0
13	0	0
21.25	0	0
21.358341816502	-0.326561417551	0
21.5	0	0
13.816492716597	-0.40394453634	0
20.25	0	0
20.423452336785	-0.313445603959	0
20.5	0	0
17.789350393153	-0.390447709085	0
17.987794057246	-0.401472255242	0
17.881276545163	-0.206424156589	0
19.564465692234	-0.270867872644	0
19.290725118801	-0.49926248604	0
16.392319441256	-0.29915360323	0
19.443730892406	-0.923508713428	0
20.457987075478	-0.803203365193	0
20.167450719332	-0.505159975143	0
0.103762538371	-0.253013629949	0
0.267057015134	-0.483604909932	0
0.374713194419	-0.2320817565	0
13.25	0	0
17.415572543912	-0.230682214253	0
17.5	0	0
17.25	0	0
18.108153655084	-0.208141099276	0
18.25	0	0
18	0	0
15.75	0	0
15.544586046819	-0.246453491997	0
15.122708481244	-0.193620038745	0
15.25	0	0
15	0	0
19.75	0	0
24.149237782749	-0.319013340846	0
23.842766599446	-0.577371105011	0
24.183995039967	-0.73159476451	0
13.871646321742	-0.17394291424	0
23.862588150518	-0.245417872715	0
16.84024277193	-0.203626765466	0
16.704049384397	-0.435508179396	0
17.112673188265	-0.38804641709	0
24.75	0	0
24.832880292394	-0.290571430318	0
25	0	0
16.40158555625	-0.755912194683	0
16.850299990829	-0.757941865332	0
17.75	0	0
23.567455674596	-0.325197491724	0
16.25	0	0
16	0	0
22.645812614293	-0.197864648876	0
22.75	0	0
22.5	0	0
16.75	0	0
17	0	0
24	0	0
26.914424714815	-0.337869958787	0
26.621963281699	-0.624626679172	0
26.977877660759	-0.778408201088	0
26.622424322919	-0.264588309935	0
19.34462271879	-0.199329831305	0
19.25	0	0
19.118057075065	-0.225686869553	0
19.5	0	0
26.75	0	0
27	0	0
27.5	0	0
27.604422363523	-0.298869962794	0
27.75	0	0
17.650384190064	-0.227839036584	0
18.343198956448	-0.236734208617	0
18.5	0	0
24.25	0	0
20.143897114391	-0.233773711865	0
25.5	0	0
25.25	0	0
25.344389320279	-0.31693710653	0
21.059546193318	-0.24845941382	0
20	0	0
25.842927934822	-0.248287716678	0
25.75	0	0
25.613904645132	-0.216025146631	0
21	0	0
11.763551406169	-1.481607093928	0
30.981104050195	-0.5526690913	0
30.873880294509	-0.217692518774	0
30.706626759758	-0.34945139905	0
20.75	0	0
20.85240828135	-0.178025243856	0
23.75	0	0
20.66289882074	-0.189089155251	0
30.204950808504	-0.791758966623	0
30.715535843381	-1.149995259266	0
30.543724897762	-0.572259098027	0
30	0	0
30.180216671806	-0.343473673313	0
30.25	0	0
23.229584388362	-0.458653998547	0
29.5	0	0
29.623391954444	-0.322069028408	0
29.75	0	0
21.618913855927	-0.233585823579	0
21.75	0	0
29.348490380579	-0.521100538161	0
29.36294710412	-0.230601226356	0
22	0	0
22.25	0	0
28.25	0	0
28	0	0
28.129259193923	-0.314252106503	0
28.44374413871	-0.484576386004	0
28.100199615755	-0.812038297775	0
28.649230646972	-0.871769248311	0
28.618403654115	-0.227691192115	0
28.5	0	0
28.387848605749	-0.205892081491	0
29.054768525933	-0.708603081552	0
29.344906532636	-0.846887322836	0
26.327430876245	-0.35930637997	0
10.349120516034	-1.04150119828	0
10.894920134778	-1.514321070539	0
24.59640839418	-0.191760546865	0
12.75	0	0
24.5	0	0
13.102881121377	-0.411296235356	0
25.099388239946	-0.214879887129	0
25.97986022697	-0.52841375324	0
24.398993403151	-0.196312410538	0
17.860840746535	-0.577367743328	0
17.566481510048	-0.529340016102	0
26.5	0	0
16.637148248735	-0.188015807345	0
18.183918302467	-0.396443618316	0
27.159348252167	-0.205297590358	0
27.357530053515	-0.198815038154	0
27.25	0	0
15.060354649709	-1.112587998155	0
15.51532665618	-1.043792149387	0
15.178150912169	-0.713100616689	0
10.051363365948	-0.719159376333	0
14.661248691948	-0.27865166374	0
14.75	0	0
27.868836823455	-0.217301839861	0
31	0	0
30.75	0	0
-0.020273477909	-1.415389842481	0
1.054972770973	-1.487485199502	0
0.512583677021	-1.0438154777	0
0.75	0	0
2.361419414365	-0.794513604096	0
29.890297721653	-0.2433406165	0
30.473599299501	-0.238575611274	0
30.5	0	0
30.660802173874	-0.161931182737	0
28.783812899585	-0.467926883932	0
4.937022539393	-0.72440615077	0
6.696914540879	-0.380672503721	0
7.434272221796	-0.695675918868	0
15.339606453815	-0.166204802571	0
15.281953315711	-0.388999642276	0
11.893544445085	-0.335972898148	0
12	0	0
9.753796445798	-0.478866225926	0
7.720012958977	-0.638314519759	0
21.871398197179	-0.313006985103	0
21.615176662754	-0.521922347305	0
21.856785525528	-0.665128848631	0
20.792152536902	-0.448319093295	0
21.109577821412	-0.527879642114	0
21.360297691811	-0.734200004244	0
15.547854961707	-0.580173571081	0
24.496861814148	-0.467031445896	0
25.067351422649	-0.463427753535	0
24.81263825963	-0.684738154192	0
22.865620821195	-0.218348593093	0
23.443705587002	-0.773171720633	0
27.277617447467	-0.489224417775	0
27.863714790534	-0.471681393437	0
26.239117668995	-0.863279739365	0
29.896797054636	-0.547765129844	0
29.612773839625	-0.699757135752	0
29.867172666547	-0.87444432816	0
29.610354212963	-1.521444655905	0
29.59548165142	-1.071765512911	0
29.115129171034	-1.220660174798	0
31.345359428525	-0.458952144926	0
31.144859415042	-0.241304201582	0
15.919565295974	-0.746550096707	0
16.063006820294	-1.289595303187	0
16.5	0	0
14.900855313538	-0.178071167744	0
14.161016743654	-0.72559708689	0
19.011498044983	-0.834202892304	0
16.760433281999	-1.263698818643	0
17.280361389946	-0.931704507314	0
-0.627742252535	-0.296285438777	0
-1	0	0
-1	-0.5	0
0.625738545692	-0.228405936136	0
0.5	0	0
3.313957665883	-0.865581185485	0
3.619156095452	-0.800599314657	0
[...]
CELL_DATA 986
SCALARS 120.00_1.17 double 1
LOOKUP_TABLE default
6.8787972598731 8.6553154719491 8.1390985984611 6.161531579617 5.1904539215882 8.6016700855455 9.4060000376638 5.849383964823 9.9458647565613 7.6164340840607 7.8692812542182 7.3496569888027 9.2216212053209 12.791913131744 10.254789443526 6.8327693874792 3.8231411364242 8.0473449691306 8.2595458875511 7.8516400730738 9.3322042307539 10.280581083467 9.3631977721621 8.9101508862624 20.865813175138 8.3725917030284 9.3732666388645 5.7861281604577 7.4913103792106 10.672214371974 7.2160134697692 11.620313793251 8.4827928524012 14.14196547175 3.7906054143883 10.373140524774 16.743873395692 9.3936125881714 4.5643824882496 3.8959867863801 6.5892910691139 4.5364313805844 10.577794928792 3.959687848929 12.66448963992 9.8391978280698 5.5457604360919 5.8767568995881 6.8640663711528 8.3343957423192 8.6771246955767 4.2551671708685 5.283669537776 10.255951631983 6.7941491871445 7.0610031324998 3.8811396412836 19.812254593299 7.3817415737025 4.2136170174293 7.5807305765094 8.776381362201 13.80710912762 8.4801313822304 20.286635279343 19.644609226748 7.2555703596353 7.0379366124726 10.238163042822 10.319498567617 10.21224719474 18.414343194571 18.394196905523 12.458676869756 9.9904280739448 7.2762359561712 14.103976888977 9.7607482975751 14.634388321916 13.147940568713 17.10368170709 4.7972408795458 11.972482715784 9.1443728263278 7.800825831458 13.733744849866 10.535756486921 7.6257557511924 26.595607992756 20.440591803615 7.6326880253988 9.1151876663531 12.85447016642 13.499432558328 8.8094763770658 9.9158640670846 10.117269013372 10.891267071659 17.734868184717 11.82643922005 15.738168071849 6.5829656000969 7.2048718394042 18.825449701873 5.4306913005465 4.2379094443055 9.9858484418925 6.1141623374885 7.3256050676053 8.4850456406632 6.2207133914481 9.8318153316294 9.3293093657214 5.4194120398672 8.6146637485162 11.756842640872 8.1695559305655 7.4764046330166 8.6734554026607 7.8663998765244 7.0394964888586 11.393176030155 8.3741971476747 6.2138512906671 7.4587544283442 12.890260495379 7.4110530701734 5.9847369200195 8.066227394398 9.4366948164232 10.616735679072 8.106115649903 23.365098547228 7.4443113732169 5.6071484418054 19.047788825854 7.207581765604 16.548983644824 16.19718778482 7.1654940749176 7.5384738237193 8.0294709460317 10.027312761043 17.230109236039 44.085682294516 26.412637130065 8.0628383927093 5.5959018128137 10.047752873969 6.9663844252486 8.4398989039849 9.6840179602269 6.5023597507353 7.2692655479057 17.942551024878 12.809545463648 12.343795846809 5.6526257101001 6.8441564456612 7.5185488068509 11.834562340971 8.4540677005946 5.5974215264467 12.983672411445 13.394432286683 5.9443456331972 4.6955090821958 8.1528098376646 13.278341050974 11.85583939714 14.654237243525 6.6690267163171 5.0702822319896 5.4223017789567 8.9432858156681 11.656059847973 11.007363657152 8.1648641362888 9.107615497017 10.578501011958 11.307345858333 10.644948452458 11.055688896546 5.5807392742879 6.5746343458062 9.5719181954364 12.339611759088 10.08756406938 8.798264878898 6.3916822900897 7.518421462811 5.1110971130541 9.9933683643679 4.3081034748431 11.363093898738 9.1841854833063 4.3567908061587 11.973223747298 10.498282505465 7.9003669893043 11.560148673439 8.7986837709056 4.7772688803883 7.3807425633893 9.22501545174 6.2444698839501 7.7673121704975 11.110995507718 7.6883006401226 13.964345205156 8.0033397845997 11.498963431686 8.7977132215112 6.1179355270072 4.6683325649194 4.1273234518405 4.0072894994069 7.9132528796685 4.7599612761762 8.8507776457189 9.3263592994843 8.199923695107 13.349441113785 7.8048819994318 13.114727784481 10.07166911222 10.201214499998 12.85929730693 8.3134766988847 8.3951352677005 10.877063468472 4.6086141044642 8.8978136983012 8.8797057786455 12.387740701825 8.9788969236837 8.65692996314 6.7551065218277 8.1080240728944 8.6785258139403 5.615245005124 5.7834906885561 9.9387862010839 10.61429243217 9.1518740383423 12.196474877889 3.7942916045376 9.6375532342124 10.488574822632 6.0000509201457 5.641079960348 6.5486764527964 6.2889961447893 9.4404629929917 11.500226491125 4.711207458037 7.6999363038847 9.7177621927387 7.0281610805911 6.5800223347208 10.365916071346 14.049622091172 9.7090118819751 9.1976903338553 6.3619906980232 14.885280218627 7.6882487146132 7.7681331410003 4.0203594924128 5.2743642053809 8.8450209933015 10.127570192965 9.4566188911014 11.340712000903 18.569352043645 15.266188588895 5.6741292744398 7.836554921514 8.7997570879711 6.8503051774609 7.185317675871 8.2795002582197 17.744329847834 11.655948934862 5.7886506921517 12.851458742836 8.4109257502618 12.514365391561 13.154135842572 10.238630069259 8.1097648687793 7.7480498066455 6.8051186702743 8.6434742769023 8.2683268250422 12.021087518327 7.3803852291133 10.663013973303 17.255576695114 8.9371997912602 5.4483223901742 9.3654610328787 10.899314408428 10.037382995399 4.6749689517425 7.0566857440619 10.263847101291 9.1507242629571 7.9268213866507 10.182356033979 9.2320946176165 8.5768030902003 5.6751121725447 6.8769406433265 9.3088805142637 7.0780950218473 18.721378705425 7.2535858403513 6.3813545814805 9.679841353859 8.5766452819718 9.5894751647778 5.0395996875355 5.4570714975495 7.7755652005591 7.6923928136801 15.11088904072 6.5281724080182 5.5565105552413 4.2933061924407 8.370841222368 6.6288659479366 8.5205846585757 9.019130341143 7.2530571520272 9.3342108358819 9.125805745174 16.437419299819 7.8962999807551 15.403215071506 3.8891202737431 4.0097728084159 11.560407486281 14.326546309881 13.038400741855 11.288894136466 9.6585390904531 12.554184972009 13.819386726762 4.6799623145203 7.981594029705 6.0132482309768 9.3981112563628 4.451258624979 4.801292505403 5.6544049857964 5.9245115881179 7.3522090580568 4.6792882235248 9.3835080811796 6.1541200115813 4.2101036380151 7.5085350830899 8.3031472377538 8.549126872167 6.8003209430101 5.6590991521896 4.3587791046577 6.7960224590869 11.134122995559 8.8088947001398 6.0859908663941 5.6727914869008 4.7933030675122 6.8948865480148 8.3502654180154 6.4313786702991 15.177427098625 11.071637393509 4.6748917148741 4.4154807220038 4.9998266911858 8.2851535598443 6.5818353132486 9.2382051695595 18.881952461957 7.9795544084367 10.583128036543 6.1512141838668 14.441453977039 8.1284864511318 6.9833375565972 4.0133132904074 9.7696630676473 7.0536178145436 8.0490472191226 5.2600684072937 9.1167691904046 7.1920213599864 8.5338110264558 11.949990783214 11.522325377779 9.0820490335959 5.8040561580494 4.6933896239713 14.326545551715 4.7630620694962 10.212804735712 10.237953771295 6.0193991973098 13.171200004083 6.6649415136607 7.3753511615529 6.3778664973519 8.6031770805664 5.98239590829 5.2281807813126 6.691645470359 4.5161714197678 5.9112915362826 5.5945195618866 16.123589618823 9.1119398342956 5.4848070051411 6.2396039094189 5.8884323229755 5.2209127486353 6.3381935907475 7.7181891348732 6.3412146898495 6.8510268277557 11.875789781697 9.8772548526668 7.6726760992545 9.305177470963 10.252882232483 4.6511860904593 6.688535521492 4.1923006966652 6.3071796426321 4.0435866929289 6.7820024785434 12.438502390838 9.6994891221227 4.2521791703534 10.058460513033 3.7282565263435 7.3713813772479 5.3937369194482 6.0038260770032 9.9442529002686 13.076657687629 10.886482471622 6.6853682403192 4.9914455160954 3.6908225494538 5.3191247273443 9.7557350699537 8.032953992659 8.3230192341343 7.3140409353151 10.064801919837 7.8341552122525 7.0890175268606 5.3448325834251 3.8428211231281 5.2708762018257 5.0751504680976 4.2584316738042 4.2398326480447 4.2891672137661 8.1826613709832 5.9183556912161 3.8810429986909 3.6888248520788 11.813786576934 7.0981195537857 5.5504564516556 5.3026259056361 4.6203845893662 5.0738251778534 4.2833245240722 4.2177051560587 13.684091263421 8.0693888493685 5.7795060720855 6.2487118380952 10.679856540118 7.0786981305014 6.418419876128 3.7986328712241 8.4777132985418 8.745817337888 11.470022600278 4.8216935365966 4.6243080172613 4.2368139200046 3.5344349283009 5.4943403142273 7.0379433045919 5.1915947519594 5.7240732838271 4.0942090451402 5.2104682262901 6.7553639016864 9.3344428088495 4.4249234480802 9.1963880338139 9.161661184021 3.6384344619856 8.1891147680327 11.195669353574 9.4049363617323 4.275775175446 7.5001496713014 5.8653207006459 4.9891846194806 5.1243561782374 4.096814152237 9.8213679889552 9.8013494377708 4.0663532249324 6.7221764737005 5.5739415776537 4.5753660322892 4.9857278583056 3.7631987395075 10.455754283037 8.3097973747974 7.7313158705222 5.4789646769088 8.9257858371255 7.2884939551944 7.6232355870345 5.3293485805076 8.5554409126244 10.453920164652 8.8997939556075 4.5090139236296 3.8634677172654 5.5504748299959 5.0522968605789 5.9865811108013 9.8473224751991 4.5320769648438 7.5560882898104 3.4500979679639 4.803369893961 3.4828602293834 3.9157695481501 7.2295154753939 4.4272434734255 4.4343143222353 5.1008605782921 7.6765308746799 6.9267487297547 5.1274559471405 6.8884459156128 4.8947790338365 5.2849981365936 4.7020335407752 4.7230613630605 6.7764795421062 4.9972176902166 5.9983088460891 10.176263035934 4.7356592911146 4.0877039204769 5.332600418985 5.1836102019831 14.009225735045 4.0803034142356 8.1882423697553 5.8757494159162 8.4468889775534 10.788166115384 4.6506853263993 3.380135142257 6.9687321565958 5.685991720343 5.5450236664205 5.5309106483118 11.637414635214 6.544323386028 4.537552610939 5.7031880050551 11.490205389195 7.0065683973915 7.3857165084608 6.1499857400679 6.1899965530834 5.1294035290197 3.6553311993226 4.6161259045882 3.720072136785 7.566749116855 6.0818863768705 5.0780483718726 4.7937093555637 5.1322988794807 6.456330079764 6.0979911692416 6.3584223161142 4.9142022932263 3.830844370498 3.4647681220071 4.3428439115745 5.5518973527315 7.8300102845517 6.3241225121957 5.5192851142296 5.2900083348033 4.2660033180904 9.314477180703 4.2917644692931 11.408269661823 6.4296475386429 3.6460063448539 9.4776475968727 7.6378568114665 4.7483860075873 7.0333912376509 5.6701818346351 4.4667169968413 4.6538566999485 4.0037869699882 6.4703476594684 5.0395727557242 3.7369778454032 4.251443066638 3.6264762339897 4.577432103298 3.9986362753022 8.3250468639733 3.8206180742323 7.6211522792954 3.9024038008388 4.2739364523212 3.7857246076994 5.7700291048746 3.6639388782197 4.0848705032832 5.7000405629229 3.6082916653659 3.5934961569753 4.5255563791796 8.8426136488952 7.2766770733578 5.9885849045878 3.7803825961411 4.0887324895632 4.0193854778436 7.2395849867696 6.2811631063564 7.1436136023218 5.7623772002376 8.5152627596041 8.5885312330826 4.5481401351288 8.231566373024 4.720012415731 8.1190588661602 5.2699692694371 7.3979533732221 8.5701051825118 6.2137402360994 7.3527697435985 6.9600949523105 7.2571994380441 7.8847407954641 8.0517176145892 6.5763013922604 7.406644889667 3.6359896334868 4.9021054056539 8.1193232219771 4.2190932418057 7.7587515571847 5.4720202630543 4.8879618229101 4.9273588153569 4.9212014632728 4.2518950008992 4.0703635251673 4.2389757221195 3.5638658925966 4.2695497641636 11.060948094625 5.5060288605374 8.6506438686552 9.6561631498659 4.2794285710639 3.7894853009836 4.0991474722665 4.1924497988442 4.8663041529159 4.5557538768178 4.8091856225836 4.4396431622427 5.2127410585556 5.1710343643262 5.3865221703345 5.1366180338386 5.4174457102893 5.8146523425146 4.9503476258326 4.8153714124429 7.1105317829831 6.9682586290433 4.0434547100024 3.4726809141152 3.7494949563994 3.9814563521863 3.6432525950107 5.578648975793 4.5200061439977 5.4937874435446 5.4518558213663 20.372231205802 17.519390424409 3.5308642788357 3.9105711577189 5.6564851308996 4.2427353673512 3.1943564938439 3.5327304998465 4.3486749168955 5.9843738098889 12.098662491299 4.8776352284927 6.5606371462603 3.9920102279453 4.2514134815575 10.373867690759 4.2216969847068 4.71485019673 7.0389162135585 3.7051278666224 3.5730811329423 6.1851401571702 7.5157146741851 4.1785732712997 3.6659027986387 3.8175176259942 5.0511627436363 4.3268745652521 4.002628877185 3.5463532181699 3.5637939034883 3.85116015561 7.8401560360192 3.8233854294295 4.3505575782203 3.8880711803032 4.4064184373922 3.6606871869165 4.2395651841612 8.5585223447541 3.4250549903253 5.2500251004307 3.5127437265605 3.511476328515 4.0316313237325 3.4685694251152 3.5860442088937 3.5956259930283 3.8564454105102 3.6907107969175 3.6883049106456 3.6688346950218 6.3597836340095 4.2333646818228 3.5529837457074 3.8688118285578 4.2072140064833 4.0840738130275 5.761377257827 6.1088246785351 4.5557319643268 5.7996521318602 4.998653658873 5.2558890368219 4.8661659278206 4.7885177267771 4.8426038278017 4.8870535833875 4.8140851014382 4.7532801789861 5.0941981153198 4.6802898551272 4.7762373420164 3.4913042210026 4.0286611954514 4.9915110932613 4.1222915546211 3.7804386172534 3.5831214893528 3.6398270079337 3.2461143138855 3.8690363610253 3.6408473237977 3.7348727950595 4.1846221811896 10.85119886303 3.8405824237018 4.0354113794692 4.040889630626 11.337048822622 6.7306113167141 3.5670097745342 3.764761551118 3.6065318939973 4.0537322108759 4.0077580803816 26.087265927585 3.5330167526764 3.6441688090917 3.8236405641818 3.5844358031524 4.7953176153851 4.8680038358689 4.7207638262831 4.433535652171 3.235479153472 4.4346272676887 3.7862046625904 3.4349242372254 3.5343470542017 3.5728987787779 3.4199383332166 3.8034769980548 4.6992583488897 3.6189816805358 3.5881170681164 3.2716993695126 3.3742634549775 3.2025973445261 3.4422760476322 3.6602384758499 3.7797419712577 4.0295499665765 4.6846362603879 4.6299340851708 3.5994917027738 3.5966923138585 3.5852966555859 3.8680756735219 3.6886666493992 3.5276591096336 3.5496950414346 3.5194443205831 3.5358052565444 3.4104099644154 3.3703435992788 3.9818534014897 3.5023681115785 3.8077404140934 3.8345196750773 3.7975709187131 3.6483884117076 3.6206974390986 3.6097327523195 3.6992925483563 3.3514008489856 3.2483110248021 3.5379354237534 3.4271894206183 3.2669080804948 3.4869797510323 3.6484342309579 3.5846048575565 3.8429380471799 3.6172991188857 3.8707067025061 3.608660732066 3.7565231617101 3.3633057111996 3.5440317997871 3.6799908973009 3.4705108550596 3.6636740194778 3.477784658344 3.8053787329333 4.1703497241522 3.5465553444166 3.8008533442044 3.6703143207437 3.5673330409159 3.626945676724 4.0307130052083 3.7362572759348 3.6677760327824 3.6732468786395 4.1103018276198 3.7620574927008 4.3123938422203 4.1053855636306 3.8295401329398 3.8565815003267 3.8412793130093 3.5185965897629 3.6968465869042 4.0017523510173 3.8935329610359 3.9758988161516 3.7233301998463 3.6184188313808 4.4612582057851 3.6896466181351 4.009259730969 4.0180185135672 4.6416297749776 4.1131573195351 3.816117599987 4.1293271708329 3.7212549260395 3.910928657116 3.6161220076197 3.8514747456066 3.9389864243934 4.1209757616445 4.5837017845056 3.9804724505327 4.6408613475816 4.039992366135 4.0075184695169 3.8011922198026 3.8752491047939 3.8870378391001 4.148940171318 4.2664304753376 3.8582897251212 3.9528369995769 3.7073092330786 3.7645434678547 3.9097438109329 4.7082822361163 4.1530935066888 4.0733021390559 3.7021826945706 3.881489335545 4.2326378620234 3.8998141151928 4.0984842481066 3.9329065953849 3.8611800637545 4.0023187102695 3.8351589781156 3.9429496636882 4.4939781957866 3.8445380648692 4.0590421160869 4.0177323610649 4.0061014375898 4.1083048777994 4.0563267139179 4.267915667866 4.363509221128 4.2395309887415 4.1098943543703 4.2396937801759 4.5320837421706 4.4164308943399 4.4671198104803 4.3127876293789 4.4478557197814 4.5845005149511 4.3731024546105 4.281405957385 4.1080092429771 3.8580367899901 4.1535843980795 4.2433357223168 4.1543738942571 4.1779042328773 4.2449843249097 4.217186296459 4.04567819155 4.1119983080615 4.2400363745624 4.2885436712521 4.2569333636562 4.3301368791966 4.2466245883883 4.3197140043113 4.3377669749512 
SCALARS 160.00_1.62 double 1
LOOKUP_TABLE default