# vtk DataFile Version 3.0
d-2__ created by libgimli-v1.1.0
ASCII
DATASET UNSTRUCTURED_GRID
POINTS 570 double
14.5	0	0
14.25	0	0
14.386963504964	-0.201738469428	0
22.399299936458	-0.310870122736	0
22.129824335287	-0.229914148082	0
22.126320781198	-0.518791771445	0
8.472303742627	-0.591754876635	0
8.780507935475	-0.76092407121	0
8.82173151259	-0.349253271447	0
18.663262297679	-0.667179415955	0
18.934786529245	-0.453308328646	0
18.636898038907	-0.29588182328	0
4.016904362632	-0.85330676142	0
4.076038737616	-0.331410355179	0
3.713721571226	-0.470767763626	0
1.89953779852	-0.269343012166	0
1.633800503821	-0.203067612233	0
1.644492760828	-0.441295523531	0
4.368408037607	-0.250833874131	0
4.337474161742	-0.544420985055	0
4.67745607622	-0.378433532554	0
1.406172533733	-0.772361039307	0
1.913288206557	-1.218576310882	0
1.90687689783	-0.651895683444	0
2.5	0	0
2.25	0	0
2.347047126858	-0.185539804102	0
1.374000926997	-0.300418771701	0
1.25	0	0
1.114902662369	-0.201591505098	0
1.067401015567	-0.470108640981	0
5.75	0	0
5.699780065382	-0.324747799653	0
5.924584257371	-0.172748359932	0
0.883560935405	-0.231136840652	0
1	0	0
9	0	0
9.117836368049	-0.253904480787	0
2.625577516194	-0.346770599322	0
17.859079774019	-0.943547525024	0
17.535029634209	-1.703182852412	0
18.338018094476	-1.366069799339	0
19.932263871771	-0.826489183604	0
19.881635677668	-0.346204516721	0
19.622287080959	-0.573770479943	0
1.5	0	0
1.75	0	0
23.25	0	0
23	0	0
23.109690227386	-0.220340974338	0
2.75	0	0
2.142562771237	-0.172460438312	0
2	0	0
23.332392704446	-0.202507275941	0
23.5	0	0
19	0	0
18.75	0	0
18.888143078348	-0.195773419804	0
2.90152418742	-0.185685383897	0
7.612175045312	-0.180627982114	0
7.527150943175	-0.401430797998	0
7.881917737402	-0.30462800112	0
25.630635194756	-0.512020961038	0
25.243766894324	-0.80097755811	0
25.758031115142	-0.952821630144	0
3	0	0
28.84859809239	-0.201276387394	0
29	0	0
28.75	0	0
4	0	0
3.835807353334	-0.199536243303	0
3.106904732949	-0.178783649348	0
29.25	0	0
29.092446172194	-0.305987136665	0
13.5	0	0
13.667851890428	-0.185102765244	0
13.75	0	0
3.75	0	0
14.407363653886	-0.441423674912	0
14.125469935998	-0.279652141152	0
4.25	0	0
5.061980176718	-0.407989246181	0
5.335512032876	-0.269401530321	0
5.113979852892	-0.173834924157	0
11.882046000841	-0.812345557852	0
12.478640631525	-1.146569360669	0
12.244190771573	-0.565936619511	0
3.633270844505	-0.195395238442	0
14	0	0
18.378272976509	-0.514977451159	0
5.5	0	0
9.619519097921	-1.16461851757	0
10.030576753886	-1.587265312651	0
9.961661342999	-1.070235523667	0
5.25	0	0
5	0	0
13.157975569138	-0.830425793913	0
13.83833027638	-1.238601004239	0
13.671302359608	-0.710707966059	0
11.325917093147	-0.8366783502	0
11.612143285947	-0.506264798476	0
6	0	0
7	0	0
6.83842404292	-0.188923754932	0
7.11236984822	-0.391746146843	0
6.631875629497	-0.169178192832	0
6.75	0	0
3.21002197083	-0.595267231049	0
3.445510026908	-0.608065324465	0
3.362318141622	-0.306501255187	0
6.120159502895	-0.164221934939	0
4.538525595924	-0.906226152762	0
13.233775457127	-1.737244787017	0
4.5	0	0
16.138065841822	-0.472802517973	0
16.126746690205	-0.221608117926	0
15.859319180798	-0.326402762318	0
26.080401003391	-0.227842452866	0
26.25	0	0
26	0	0
3.019224421113	-0.401469974918	0
8.234901607028	-0.35771789179	0
8.518285578354	-0.242327591839	0
8.328777073389	-0.153008859619	0
7.25	0	0
7.400656881666	-0.195280611572	0
7.5	0	0
5.385509485898	-0.709154879541	0
5.948697127931	-0.745234910621	0
8.75	0	0
8.5	0	0
8.25	0	0
2.214249105773	-0.404278959534	0
2.896561357202	-0.792481120253	0
9.25	0	0
4.920911116561	-0.192028847294	0
9.651670336652	-0.200847798694	0
9.849824537955	-0.19917205686	0
9.75	0	0
10.095049354068	-0.315754204277	0
10	0	0
3.25	0	0
6.738406513564	-0.710129601907	0
7.121614580011	-0.943026074581	0
11.345829942703	-0.314788260019	0
11.25	0	0
11.104427225455	-0.188863495516	0
6.052412255932	-0.372556729023	0
6.373371846535	-0.274163514827	0
10.25	0	0
10.380281579003	-0.241092027437	0
10.5	0	0
10.75	0	0
10.909079077441	-0.189427130481	0
11	0	0
6.25	0	0
6.5	0	0
4.75	0	0
3.5	0	0
10.672815698565	-0.318467932684	0
10.772487906066	-0.787092734739	0
11.020900486567	-0.439266778492	0
8	0	0
7.75	0	0
11.5	0	0
11.619450354737	-0.231443672836	0
11.75	0	0
8.139317726831	-0.163309591658	0
12.25	0	0
12.158949464947	-0.235415698299	0
12.412455385193	-0.275030800337	0
12.929165084344	-0.221336108042	0
12.686337592177	-0.258437422252	0
12.900449535554	-0.462768612232	0
12.5	0	0
9.405755833308	-0.325979504745	0
9.111697192308	-0.594170467817	0
9.457257345083	-0.753685223931	0
18.101369157139	-0.618560521812	0
18.336839281097	-0.861122419318	0
10.385948631267	-0.570640149046	0
9.5	0	0
13.411260455969	-0.342646276848	0
12.643108055516	-0.590179775368	0
13.137744715761	-0.195204172124	0
13	0	0
21.25	0	0
21.358341816502	-0.326561417551	0
21.5	0	0
13.816492716597	-0.40394453634	0
20.25	0	0
20.423452336785	-0.313445603959	0
20.5	0	0
17.789350393153	-0.390447709085	0
17.987794057246	-0.401472255242	0
17.881276545163	-0.206424156589	0
19.564465692234	-0.270867872644	0
19.290725118801	-0.49926248604	0
16.392319441256	-0.29915360323	0
19.443730892406	-0.923508713428	0
20.457987075478	-0.803203365193	0
20.167450719332	-0.505159975143	0
0.103762538371	-0.253013629949	0
0.267057015134	-0.483604909932	0
0.374713194419	-0.2320817565	0
13.25	0	0
17.415572543912	-0.230682214253	0
17.5	0	0
17.25	0	0
18.108153655084	-0.208141099276	0
18.25	0	0
18	0	0
15.75	0	0
15.544586046819	-0.246453491997	0
15.122708481244	-0.193620038745	0
15.25	0	0
15	0	0
19.75	0	0
24.149237782749	-0.319013340846	0
23.842766599446	-0.577371105011	0
24.183995039967	-0.73159476451	0
13.871646321742	-0.17394291424	0
23.862588150518	-0.245417872715	0
16.84024277193	-0.203626765466	0
16.704049384397	-0.435508179396	0
17.112673188265	-0.38804641709	0
24.75	0	0
24.832880292394	-0.290571430318	0
25	0	0
16.40158555625	-0.755912194683	0
16.850299990829	-0.757941865332	0
17.75	0	0
23.567455674596	-0.325197491724	0
16.25	0	0
16	0	0
22.645812614293	-0.197864648876	0
22.75	0	0
22.5	0	0
16.75	0	0
17	0	0
24	0	0
26.914424714815	-0.337869958787	0
26.621963281699	-0.624626679172	0
26.977877660759	-0.778408201088	0
26.622424322919	-0.264588309935	0
19.34462271879	-0.199329831305	0
19.25	0	0
19.118057075065	-0.225686869553	0
19.5	0	0
26.75	0	0
27	0	0
27.5	0	0
27.604422363523	-0.298869962794	0
27.75	0	0
17.650384190064	-0.227839036584	0
18.343198956448	-0.236734208617	0
18.5	0	0
24.25	0	0
20.143897114391	-0.233773711865	0
25.5	0	0
25.25	0	0
25.344389320279	-0.31693710653	0
21.059546193318	-0.24845941382	0
20	0	0
25.842927934822	-0.248287716678	0
25.75	0	0
25.613904645132	-0.216025146631	0
21	0	0
11.763551406169	-1.481607093928	0
30.981104050195	-0.5526690913	0
30.873880294509	-0.217692518774	0
30.706626759758	-0.34945139905	0
20.75	0	0
20.85240828135	-0.178025243856	0
23.75	0	0
20.66289882074	-0.189089155251	0
30.204950808504	-0.791758966623	0
30.715535843381	-1.149995259266	0
30.543724897762	-0.572259098027	0
30	0	0
30.180216671806	-0.343473673313	0
30.25	0	0
23.229584388362	-0.458653998547	0
29.5	0	0
29.623391954444	-0.322069028408	0
29.75	0	0
21.618913855927	-0.233585823579	0
21.75	0	0
29.348490380579	-0.521100538161	0
29.36294710412	-0.230601226356	0
22	0	0
22.25	0	0
28.25	0	0
28	0	0
28.129259193923	-0.314252106503	0
28.44374413871	-0.484576386004	0
28.100199615755	-0.812038297775	0
28.649230646972	-0.871769248311	0
28.618403654115	-0.227691192115	0
28.5	0	0
28.387848605749	-0.205892081491	0
29.054768525933	-0.708603081552	0
29.344906532636	-0.846887322836	0
26.327430876245	-0.35930637997	0
10.349120516034	-1.04150119828	0
10.894920134778	-1.514321070539	0
24.59640839418	-0.191760546865	0
12.75	0	0
24.5	0	0
13.102881121377	-0.411296235356	0
25.099388239946	-0.214879887129	0
25.97986022697	-0.52841375324	0
24.398993403151	-0.196312410538	0
17.860840746535	-0.577367743328	0
17.566481510048	-0.529340016102	0
26.5	0	0
16.637148248735	-0.188015807345	0
18.183918302467	-0.396443618316	0
27.159348252167	-0.205297590358	0
27.357530053515	-0.198815038154	0
27.25	0	0
15.060354649709	-1.112587998155	0
15.51532665618	-1.043792149387	0
15.178150912169	-0.713100616689	0
10.051363365948	-0.719159376333	0
14.661248691948	-0.27865166374	0
14.75	0	0
27.868836823455	-0.217301839861	0
31	0	0
30.75	0	0
-0.020273477909	-1.415389842481	0
1.054972770973	-1.487485199502	0
0.512583677021	-1.0438154777	0
0.75	0	0
2.361419414365	-0.794513604096	0
29.890297721653	-0.2433406165	0
30.473599299501	-0.238575611274	0
30.5	0	0
30.660802173874	-0.161931182737	0
28.783812899585	-0.467926883932	0
4.937022539393	-0.72440615077	0
6.696914540879	-0.380672503721	0
7.434272221796	-0.695675918868	0
15.339606453815	-0.166204802571	0
15.281953315711	-0.388999642276	0
11.893544445085	-0.335972898148	0
12	0	0
9.753796445798	-0.478866225926	0
7.720012958977	-0.638314519759	0
21.871398197179	-0.313006985103	0
21.615176662754	-0.521922347305	0
21.856785525528	-0.665128848631	0
20.792152536902	-0.448319093295	0
21.109577821412	-0.527879642114	0
21.360297691811	-0.734200004244	0
15.547854961707	-0.580173571081	0
24.496861814148	-0.467031445896	0
25.067351422649	-0.463427753535	0
24.81263825963	-0.684738154192	0
22.865620821195	-0.218348593093	0
23.443705587002	-0.773171720633	0
27.277617447467	-0.489224417775	0
27.863714790534	-0.471681393437	0
26.239117668995	-0.863279739365	0
29.896797054636	-0.547765129844	0
29.612773839625	-0.699757135752	0
29.867172666547	-0.87444432816	0
29.610354212963	-1.521444655905	0
29.59548165142	-1.071765512911	0
29.115129171034	-1.220660174798	0
31.345359428525	-0.458952144926	0
31.144859415042	-0.241304201582	0
15.919565295974	-0.746550096707	0
16.063006820294	-1.289595303187	0
16.5	0	0
14.900855313538	-0.178071167744	0
14.161016743654	-0.72559708689	0
19.011498044983	-0.834202892304	0
16.760433281999	-1.263698818643	0
17.280361389946	-0.931704507314	0
-0.627742252535	-0.296285438777	0
-1	0	0
-1	-0.5	0
0.625738545692	-0.228405936136	0
0.5	0	0
3.313957665883	-0.865581185485	0
3.619156095452	-0.800599314657	0
[...]
CELL_DATA 986
SCALARS 100.00_0.32 double 1
LOOKUP_TABLE default
5.9732326378289 6.3189376100313 6.5559857868271 5.4788032664174 5.062084740155 6.2450940060094 5.9115888219132 4.9313012529398 6.4283474660868 6.9263648827643 6.2768217848839 6.1087160012713 6.77082710925 6.9204353486434 6.6473305326476 6.7992516523054 4.0436942582116 5.9704919460346 5.9957825567941 5.9869178343899 6.6594289671283 6.4215679359335 5.0041986610013 6.5824759561614 6.6925040400367 6.2681122139053 6.7202655574785 5.125469790262 6.125838176761 6.0272491763124 6.025216561353 5.9789001370312 6.6820677624398 6.1985624293486 5.8671974465904 6.476016766042 6.8436223786391 5.7085128718668 4.8933481445773 5.8900333829959 6.8320702469468 5.358774750017 6.0673648551956 4.2502437423888 5.1831735604549 5.3399771916277 5.2627281216132 5.5267268897512 5.8508555842552 7.589557103143 6.9464958192868 7.293071209994 5.0003213147015 6.7006676390092 5.2761322246364 6.5773544297815 4.2767726521045 7.4443111628234 6.7463336486719 7.7029923750708 6.3697863403286 5.9095964481569 7.240939119541 6.6662000433358 8.2294072518826 7.3381381940252 5.389834558951 5.2406215791729 7.3640774267113 5.5991178287719 7.7485723399587 6.331840578524 6.8419074325371 7.0511604824291 6.5399194040684 5.4715437803253 6.8443202976701 5.8257684778249 8.3724402945447 7.3859115690608 5.7857111231895 4.9735118376779 5.97689318063 6.5034650647076 7.47987130021 7.1118026611598 7.3109931498799 7.0111193277594 6.6803460580146 8.544796661114 5.5110681200181 6.6921311577294 5.4584267601711 7.7572329785997 6.2861273334092 6.7539957983317 7.4791547819998 6.7856000119267 6.4179702951443 5.7579524741461 6.5629837919378 6.8830066821488 6.5231183462341 6.7726268982422 5.6412449555101 5.0617154537138 6.5631811083862 5.5593348737764 6.1133506563018 6.1069637360302 6.0442309838803 6.8195003715259 6.47531668345 9.8584901186619 6.4639332244982 8.9211753690356 6.6345802043021 6.3732864910524 6.3104291552394 6.7128216996283 5.5153056109825 6.7682372777387 6.4178566135242 5.6450099006539 6.0909325891819 5.9175375334179 5.6169954163582 5.3189899619152 6.8923536895158 5.6598826396266 6.6969532306554 7.5779108379002 7.3026487562551 6.4953476354024 5.4611967879758 6.061730782239 6.5504892473734 6.8472093071025 9.6007136967998 6.1026127666587 7.1529529366872 6.9912941395862 6.4644946830177 5.5735759757099 7.2850005252848 6.8945298374941 7.4576250774802 5.2672428633665 6.1354769026484 5.5775334197085 8.1389923863596 8.9204595663389 5.612009806269 7.945958407331 7.3137726817673 7.8254840812855 6.1201508970417 6.3454072839785 6.8104541834627 5.6573307231059 8.4078382891375 7.3771368460126 8.7969976066454 8.5383783417231 5.8898383094875 9.3923392044454 4.6921688812433 6.5975003065753 7.0996085305223 10.697144951663 7.8363322373532 6.31827901006 5.1741927603287 8.8410915871104 6.0525270505584 6.0739704097456 6.4174389814548 7.2350857897358 6.407798689406 6.6207578834487 5.297665639604 7.3992319030889 6.850296496041 5.2167418478372 5.2759940138565 5.7424301812921 6.8587297967429 5.7221059133745 6.4116485212072 5.5366797913542 5.661894283211 4.7675126434324 8.984040282153 4.8707262251789 8.7079940842203 8.9680458945261 4.8964460052905 7.5740630931996 8.930028293214 6.3325611700944 7.4605658554343 6.133972803967 6.6785435186499 7.4805948552767 6.6567288015011 5.7771802951132 6.1873112601445 6.3270049243283 6.0676079022742 5.8136840207456 5.4090906980844 6.8471767525831 5.7434475464556 6.0189654049402 7.1945160195078 7.0170216124239 4.5312248937343 6.9417324490253 4.7872780807803 5.9852359782185 7.2408900016952 6.4933552799461 6.8335744604037 8.7081200141416 6.7893751742607 6.4488469313464 6.3955293288033 6.7925955635137 6.0594102013556 6.301486242583 8.9789433785142 4.2594561194721 6.8712621001284 6.6991859454488 7.5155855243786 5.7967172573458 6.2593197355696 5.3296987435738 6.1460821035125 6.1882083303679 7.7761443026655 6.7260956762232 6.6778844950699 5.3557056198549 9.0679339872282 6.4756084540787 6.0630544584263 8.7385339897072 5.98392975905 7.6021680369632 5.5654453981008 7.3751846957715 5.1182454557709 6.1352728059784 7.4393744016054 5.6679203023547 6.5449326483141 6.4641918237736 6.7012032087272 5.3733309080283 5.8612414690966 5.6142282655748 5.9882152736031 5.8597652230618 6.2382489107585 7.1596150413506 6.1418079797894 5.8736748410384 7.2852182294489 6.6129389768755 5.8648138817933 7.2679904897017 6.430595127712 7.3205270205831 6.2935907701864 6.9430878911007 6.402837097918 6.4441459952974 6.5319152242148 6.6027327148892 5.8633538482243 6.9061346285365 6.5825312710331 6.6406167866929 5.2960050038046 6.6405584126769 6.4993063458496 6.9753457286437 8.8562639151358 7.2815968577174 6.6450404010389 6.239645525692 5.9513058869367 5.5667939377948 6.4592746267667 8.9616971434417 6.4058528035539 7.1962825765225 7.2816999446838 7.1619220422185 5.8173229536304 7.7893338557108 7.6282593543403 7.1193303840243 5.4278697418476 6.0818698390218 7.2855237810137 7.3355248423564 7.1341853115417 6.2477721262846 6.6036571412521 6.7786961382303 6.6208950573473 6.9634183033724 6.3313441414513 5.8948847695448 5.3377762704052 5.8599589386056 6.4469869897029 5.9459902497929 6.1520996296519 6.7026200857494 7.603393478331 6.7395342138219 5.9890842701121 6.1364824769962 5.82871735698 5.4520260052171 5.5122313752908 4.3277281694689 5.4668558750638 6.0067212331881 7.5906358938863 6.1995042143519 6.3577437495093 6.2169405473771 6.1383072222934 7.9842602185101 5.9379134494368 6.214289996787 4.5360598605704 4.8955410378545 7.4187140012588 7.1804852466833 6.7194099687225 6.5353020949295 7.9402673802281 9.3578327690808 6.7530632647218 5.8234300414736 6.4658191635677 5.013836216076 6.0410707157485 4.8873037489187 5.9644650295395 5.2380773531916 4.9794676295091 5.71980158943 5.2313410553496 8.0329619548963 5.7779283990183 4.5273315189429 5.7143734138913 5.7396810172948 5.8178312177851 5.227115040197 4.8109194678679 4.4349967603248 6.1627635255222 6.9437161208905 6.3572374978143 6.8658466289056 5.3978229019149 4.8467393676379 5.7325062764739 6.0480660143996 5.3882448306128 6.8688538567139 7.3216687505422 5.2021223649002 4.6073296107494 5.7671104857229 6.2375836264801 6.1806820079602 7.6030797601041 6.7372806161548 5.9536819930954 6.3698957445939 5.3502057552044 6.8516865615114 6.1084875733751 5.8458549475456 4.9305993482989 6.7690150767318 5.8909133981714 7.0943130032841 5.7763604147191 6.9981173219278 6.9711981169901 6.1854031281967 6.0808142165032 7.1480813281935 6.693129256264 6.8874390727069 4.845577022683 7.1992807524762 5.0790206651582 6.8178098065608 7.3441958978189 5.9810724535686 6.9714790765263 6.3721274949522 6.2347237756233 5.9027434489166 6.4242504501028 6.6075588089572 5.4571555485932 5.8420824564427 4.9108322838276 5.6818725864591 5.032478491167 5.5842626125682 6.2725890508427 5.6057820865501 5.601428989921 6.7932748081687 5.5388211778815 5.2811901850683 5.9901234220095 5.3712748734603 5.6244275060965 6.6720851117548 6.3064929805079 8.0666452285306 4.4178974102539 6.4252553451495 4.764026419186 6.7003194531986 4.311029072404 6.676607422051 4.4414038153126 6.0833401363413 7.4741572953905 6.6518493119948 4.5493263096874 6.1579674118522 4.104369200738 6.9892700990955 5.4581057280115 5.8114130557481 6.8839850798209 6.5991639379325 6.6206874331287 5.4388223962798 4.6843310450967 3.9212899890194 5.7204389386392 6.5668375091495 5.8932765656396 6.3103527738955 5.5877864546334 7.4865946441831 5.8406636963573 4.893834883441 5.3105281697923 4.1853530517176 4.7481972635641 5.5096517309824 4.5957993471821 4.2689035017444 4.7036798594272 5.8240960290956 5.1218818593161 4.2241415518565 3.8761580428798 6.8562963719095 6.1950205775897 6.2838409372574 5.4083111349752 4.3930790326605 5.2336438392871 4.4130709398035 4.7693530541238 7.1235988328911 6.6990895177516 5.4959196476736 5.8048213369623 6.4287212873591 5.7101463698128 6.0691064675125 4.0688781042864 6.2806441672961 7.4038359721823 6.6860627179868 5.5123676725029 4.8488644118741 4.1069797893738 3.5953357746605 5.058490669706 6.6294004011067 5.2606467049308 5.5114180452743 4.6205804383949 5.1777565633944 6.1746302953179 7.0507316197376 4.7340070987564 6.1775161298289 7.1524208338547 3.8065771439898 6.2107974924116 8.9891768342292 5.9196315966131 4.3563813461877 5.7809779728626 6.3044165902743 4.989449248917 4.850588844135 4.1278483007151 6.2918931962214 6.3078474897965 4.4049838084669 5.7941077286143 6.3981964364462 4.9449603641038 4.6687192581501 4.1413880575274 6.1096473123079 5.95279742728 5.6153435996235 5.9935584527616 4.587749496558 6.0269391215337 7.4219484207402 5.9134218037516 4.5676417591794 6.5999858901863 6.1602704329991 4.3064198220028 3.4549849394555 6.323257381587 4.7508052239653 6.818753428486 6.4386025699092 4.3951599282634 6.1732030783723 3.5155125739608 4.7708695753037 3.3699618075096 3.8922355631182 6.2611843606779 4.626091163656 5.884879753337 4.5900559285803 6.347526143919 6.0080230820018 4.7882333666841 6.0164027474164 4.4366687124146 4.6109312754224 5.0603452870715 4.7184973286105 5.4899175266668 4.5983814352684 5.7329848963174 7.1052973012468 4.3374408908824 4.2419446329542 5.5849291788981 5.0169557476942 6.6539224223089 4.9519759894154 6.5686573066711 5.3836552522815 6.3091446881001 6.1852056205541 4.531533288276 3.5711197961133 5.9562401738856 5.5615915218379 5.2259274148444 5.3084542205395 7.2033885696309 6.4317241627688 4.3650538148909 6.0327146751672 6.1236490214132 6.0564695810953 5.8723765866601 5.3539249891513 5.6497573287301 5.1455213046082 3.6691776246055 5.3714950977393 3.7750089119466 6.1236524382715 4.9083178774173 5.5172703573788 4.5503085759818 5.1333954950523 4.9880431293726 5.5236272611921 5.4067466701326 4.6733281457289 4.0544203132612 3.5720127127745 4.1455032511402 5.3152351990273 6.488170511922 5.9598826605854 5.4584599925283 4.8802095697666 4.1799938202778 7.0453837378145 4.3763726140933 7.1422053182273 6.0195400504776 3.4209599805403 5.821677147178 6.3635095258512 5.6950409817045 6.2235654100032 5.7900095200939 4.4859069555358 4.5171048683608 4.4506502636926 5.4840187300032 5.3858644486114 3.6308564921399 4.1813640895194 3.7729496162952 4.2276769602366 3.8554690453259 6.2075839183123 4.5015544944978 6.3214333020029 4.0741379082176 4.156448278596 4.287842913862 5.6715651492849 3.9601866962337 3.8617205470593 4.9722449345743 4.1927264701503 3.4318567397258 4.8965895977972 6.7320310412417 6.1700671240687 5.4850158420061 3.7254693333724 4.2661056211719 3.9509487208098 5.3282808784486 5.5671119313292 5.135119580241 5.2512932384629 5.8948447526051 5.1156441543954 4.6615456951739 5.463313606037 4.9219556099898 5.2984890238406 4.3435441542843 5.1817341015563 5.4169949769485 4.7911219688161 5.3322397503521 5.1054397943919 5.3667249652861 5.5379888880624 5.7199621681248 4.9838076533423 5.4430564481293 3.8026093930916 4.5162836750862 6.5116863538464 3.9074581399682 6.4472210395313 5.5416323004929 4.966904208847 5.0564931810016 5.17579059269 4.2399107619841 4.0174719487637 4.1609444081519 3.9834810735887 4.3472852816489 6.3558212718188 7.582979699738 6.5681127921285 7.082607919966 3.9504788051109 3.4429344064462 4.378191640265 4.5892207274722 4.7676340563186 4.6318252648232 4.7010508601456 4.3149836940058 4.9154474216885 5.4511032822345 5.1524164055073 5.1250344927625 5.0679309270818 4.7679468309656 4.8186506353017 4.1257018455881 5.2796248324321 5.1948072779587 3.9698029833798 3.2711452294895 3.1706780562372 3.7350654105701 3.6241553582718 5.2768395652564 4.7009735747095 5.5296240219817 4.9475941129473 6.5168543655739 6.8625400098745 3.5536331419212 3.9186909168172 5.7816019655402 4.4225764143756 3.383752878573 3.563204819291 4.3248637859899 5.5466591240076 6.7618005768946 5.222971538076 5.9861007884729 4.2292592779762 4.3608024740115 6.8744772325364 4.3013301570823 5.1003506123007 7.7958744598761 4.1460691666361 3.7864342504297 5.6030186619805 6.008145142295 4.2497448270703 3.9313725905079 3.6817851376279 5.0488178928464 3.7671476121467 4.057678400062 3.3193066397348 3.3721541251577 3.5991899558113 6.4597362614077 3.981901372758 4.8345856903975 3.8344060077316 4.2843556512603 3.837776728962 4.5190228622571 6.2883157366236 3.3224685168666 5.1906484987805 3.1844596498838 3.5728466675835 4.5411235296729 3.7283731967782 3.4485817153156 3.5395609370828 3.9302144880803 3.7087039588705 4.02399017286 3.5441477962009 5.671747101286 4.2349544964911 3.4510177912599 3.5481280004929 4.0310829238955 3.8258745500476 5.1928653189187 5.1490748095242 5.5136629368232 5.3992466345188 4.7799763423145 5.0967208616194 4.4909260635324 4.6677940382989 5.2267068419964 5.0023788346765 4.2456338623115 4.5412150106492 4.5961619722606 5.2819725857704 4.8088950360926 3.1675153383457 4.0530161197899 4.2757655989165 3.9076905755422 3.8174871802318 3.3962102168772 3.5165308648078 3.3520098240764 3.944933377593 3.3669269208939 3.838965085475 4.1498499761447 6.7563205612788 3.7058288838246 4.4028635099529 4.3139373829076 7.0042808885691 5.3680728585475 3.4540110733899 3.4385684936156 3.2461259580432 3.7681814609372 4.379797123486 6.8390672458761 3.3368899992579 3.6758563876443 3.8503905417809 3.1764277007043 3.9312705870421 4.3623849025822 4.0003341497438 3.9246408812868 3.490207398131 3.959660871663 3.8001293011316 3.4015444889806 3.9234844297195 3.1517321905346 3.4344842355812 3.9382680061995 3.8697558474106 3.1695710378458 3.3120180618405 3.148399951882 3.2745317566631 3.1897619573285 3.2981069361872 3.2422006719164 3.8499448318693 3.7258972330452 4.4670865653233 4.5767806516643 3.4568429532505 3.3238794944666 3.1886051586052 3.9236160167592 3.351162675911 3.3282953757567 3.2251062023741 3.2499457189267 3.1812382957409 3.4782411468074 3.2945204394639 3.8344620762565 3.1896564612523 3.3051644605257 3.6212681249184 3.6029072938973 3.1070585679123 3.1071572586575 3.1850039342811 3.2984208233227 3.166362422337 3.1687289256975 3.1208082768692 3.2377747614835 3.2420670003388 3.2108528430861 3.5677511922121 3.2654709288044 3.4159704692449 3.1498278549984 3.9840150508697 3.1201972199808 3.2901704142842 3.1269196510076 3.1217503218462 3.1717401636705 3.1409390832848 3.3236922716136 3.3272313375064 3.3790192792598 3.7075250623083 3.2039198216749 3.4760112934358 3.1575412220268 3.1355977353011 3.3853279640692 4.0387289829181 3.3628641702539 3.2763570215821 3.2214978132257 3.8232372870755 3.4317390096786 4.1921429993977 3.5695736828921 3.354976640665 3.3837972538406 3.2942203762581 3.1600719381324 3.597004813177 3.5198925735199 3.46805632474 3.5335885044516 3.5746936718559 3.4814793944105 3.748382551964 3.1649233461277 3.4576195549584 4.3545500749027 3.9440144031724 3.7559346164426 3.3512784184489 3.9039044218677 3.2176175749842 3.6124510774138 3.3771067612823 3.9320197243695 3.5322829153314 3.7247921264766 4.1251861359964 3.4887388256996 4.0519631778272 3.6763534682359 3.6510879913733 3.7897032218124 3.8495606358231 4.0080077719514 3.7161907579504 4.0507260061677 3.3782632108972 3.3587979061661 3.3051361682134 3.3528267747642 3.556600276577 3.91958680374 4.0632103111411 3.9333891120804 3.5721075035886 3.8858540873854 3.9960807742444 4.0829489637637 4.4600099729881 4.1611771064033 3.5496504728486 3.549426752378 3.4520406943496 3.6836866442597 3.8278755469437 3.3348122765866 3.6130250070561 3.7937780454919 3.5184821996581 3.6964244343623 3.538573099301 3.8840965515592 3.9148259543196 4.0293578215716 3.8575236261606 4.2671609925569 4.2277358518625 4.1049684370323 4.0611269165271 4.0172824530877 4.1966626748159 4.2050467146159 4.2125371797469 4.1669816478968 3.8219731303258 3.4904863745601 4.3377961444731 4.0103546391289 3.7782653633511 3.9464326403647 4.1114159891332 4.1946326912316 3.8355673161419 4.0082807015729 4.3128166799189 4.3093989308129 4.3421697328917 4.3952348090478 4.1154485364775 4.4184080901573 4.3829648799987 
SCALARS 200.00_0.59 double 1
LOOKUP_TABLE default