# vtk DataFile Version 3.0
d-2__ created by libgimli-v1.1.0
ASCII
DATASET UNSTRUCTURED_GRID
POINTS 570 double
14.5	0	0
14.25	0	0
14.386963504964	-0.201738469428	0
22.399299936458	-0.310870122736	0
22.129824335287	-0.229914148082	0
22.126320781198	-0.518791771445	0
8.472303742627	-0.591754876635	0
8.780507935475	-0.76092407121	0
8.82173151259	-0.349253271447	0
18.663262297679	-0.667179415955	0
18.934786529245	-0.453308328646	0
18.636898038907	-0.29588182328	0
4.016904362632	-0.85330676142	0
4.076038737616	-0.331410355179	0
3.713721571226	-0.470767763626	0
1.89953779852	-0.269343012166	0
1.633800503821	-0.203067612233	0
1.644492760828	-0.441295523531	0
4.368408037607	-0.250833874131	0
4.337474161742	-0.544420985055	0
4.67745607622	-0.378433532554	0
1.406172533733	-0.772361039307	0
1.913288206557	-1.218576310882	0
1.90687689783	-0.651895683444	0
2.5	0	0
2.25	0	0
2.347047126858	-0.185539804102	0
1.374000926997	-0.300418771701	0
1.25	0	0
1.114902662369	-0.201591505098	0
1.067401015567	-0.470108640981	0
5.75	0	0
5.699780065382	-0.324747799653	0
5.924584257371	-0.172748359932	0
0.883560935405	-0.231136840652	0
1	0	0
9	0	0
9.117836368049	-0.253904480787	0
2.625577516194	-0.346770599322	0
17.859079774019	-0.943547525024	0
17.535029634209	-1.703182852412	0
18.338018094476	-1.366069799339	0
19.932263871771	-0.826489183604	0
19.881635677668	-0.346204516721	0
19.622287080959	-0.573770479943	0
1.5	0	0
1.75	0	0
23.25	0	0
23	0	0
23.109690227386	-0.220340974338	0
2.75	0	0
2.142562771237	-0.172460438312	0
2	0	0
23.332392704446	-0.202507275941	0
23.5	0	0
19	0	0
18.75	0	0
18.888143078348	-0.195773419804	0
2.90152418742	-0.185685383897	0
7.612175045312	-0.180627982114	0
7.527150943175	-0.401430797998	0
7.881917737402	-0.30462800112	0
25.630635194756	-0.512020961038	0
25.243766894324	-0.80097755811	0
25.758031115142	-0.952821630144	0
3	0	0
28.84859809239	-0.201276387394	0
29	0	0
28.75	0	0
4	0	0
3.835807353334	-0.199536243303	0
3.106904732949	-0.178783649348	0
29.25	0	0
29.092446172194	-0.305987136665	0
13.5	0	0
13.667851890428	-0.185102765244	0
13.75	0	0
3.75	0	0
14.407363653886	-0.441423674912	0
14.125469935998	-0.279652141152	0
4.25	0	0
5.061980176718	-0.407989246181	0
5.335512032876	-0.269401530321	0
5.113979852892	-0.173834924157	0
11.882046000841	-0.812345557852	0
12.478640631525	-1.146569360669	0
12.244190771573	-0.565936619511	0
3.633270844505	-0.195395238442	0
14	0	0
18.378272976509	-0.514977451159	0
5.5	0	0
9.619519097921	-1.16461851757	0
10.030576753886	-1.587265312651	0
9.961661342999	-1.070235523667	0
5.25	0	0
5	0	0
13.157975569138	-0.830425793913	0
13.83833027638	-1.238601004239	0
13.671302359608	-0.710707966059	0
11.325917093147	-0.8366783502	0
11.612143285947	-0.506264798476	0
6	0	0
7	0	0
6.83842404292	-0.188923754932	0
7.11236984822	-0.391746146843	0
6.631875629497	-0.169178192832	0
6.75	0	0
3.21002197083	-0.595267231049	0
3.445510026908	-0.608065324465	0
3.362318141622	-0.306501255187	0
6.120159502895	-0.164221934939	0
4.538525595924	-0.906226152762	0
13.233775457127	-1.737244787017	0
4.5	0	0
16.138065841822	-0.472802517973	0
16.126746690205	-0.221608117926	0
15.859319180798	-0.326402762318	0
26.080401003391	-0.227842452866	0
26.25	0	0
26	0	0
3.019224421113	-0.401469974918	0
8.234901607028	-0.35771789179	0
8.518285578354	-0.242327591839	0
8.328777073389	-0.153008859619	0
7.25	0	0
7.400656881666	-0.195280611572	0
7.5	0	0
5.385509485898	-0.709154879541	0
5.948697127931	-0.745234910621	0
8.75	0	0
8.5	0	0
8.25	0	0
2.214249105773	-0.404278959534	0
2.896561357202	-0.792481120253	0
9.25	0	0
4.920911116561	-0.192028847294	0
9.651670336652	-0.200847798694	0
9.849824537955	-0.19917205686	0
9.75	0	0
10.095049354068	-0.315754204277	0
10	0	0
3.25	0	0
6.738406513564	-0.710129601907	0
7.121614580011	-0.943026074581	0
11.345829942703	-0.314788260019	0
11.25	0	0
11.104427225455	-0.188863495516	0
6.052412255932	-0.372556729023	0
6.373371846535	-0.274163514827	0
10.25	0	0
10.380281579003	-0.241092027437	0
10.5	0	0
10.75	0	0
10.909079077441	-0.189427130481	0
11	0	0
6.25	0	0
6.5	0	0
4.75	0	0
3.5	0	0
10.672815698565	-0.318467932684	0
10.772487906066	-0.787092734739	0
11.020900486567	-0.439266778492	0
8	0	0
7.75	0	0
11.5	0	0
11.619450354736	-0.231443672836	0
11.75	0	0
8.139317726831	-0.163309591658	0
12.25	0	0
12.158949464947	-0.235415698299	0
12.412455385193	-0.275030800337	0
12.929165084344	-0.221336108042	0
12.686337592177	-0.258437422252	0
12.900449535554	-0.462768612232	0
12.5	0	0
9.405755833308	-0.325979504745	0
9.111697192308	-0.594170467817	0
9.457257345083	-0.753685223931	0
18.101369157139	-0.618560521812	0
18.336839281097	-0.861122419318	0
10.385948631267	-0.570640149046	0
9.5	0	0
13.411260455969	-0.342646276848	0
12.643108055516	-0.590179775368	0
13.137744715761	-0.195204172124	0
13	0	0
21.25	0	0
21.358341816502	-0.326561417551	0
21.5	0	0
13.816492716597	-0.40394453634	0
20.25	0	0
20.423452336785	-0.313445603959	0
20.5	0	0
17.789350393153	-0.390447709085	0
17.987794057246	-0.401472255242	0
17.881276545163	-0.206424156589	0
19.564465692234	-0.270867872644	0
19.290725118801	-0.49926248604	0
16.392319441256	-0.29915360323	0
19.443730892406	-0.923508713428	0
20.457987075478	-0.803203365193	0
20.167450719332	-0.505159975143	0
0.103762538371	-0.253013629949	0
0.267057015134	-0.483604909932	0
0.374713194419	-0.2320817565	0
13.25	0	0
17.415572543912	-0.230682214253	0
17.5	0	0
17.25	0	0
18.108153655084	-0.208141099276	0
18.25	0	0
18	0	0
15.75	0	0
15.544586046819	-0.246453491997	0
15.122708481244	-0.193620038745	0
15.25	0	0
15	0	0
19.75	0	0
24.149237782749	-0.319013340846	0
23.842766599446	-0.577371105011	0
24.183995039967	-0.73159476451	0
13.871646321742	-0.17394291424	0
23.862588150518	-0.245417872715	0
16.84024277193	-0.203626765466	0
16.704049384397	-0.435508179396	0
17.112673188265	-0.38804641709	0
24.75	0	0
24.832880292394	-0.290571430318	0
25	0	0
16.40158555625	-0.755912194683	0
16.850299990829	-0.757941865332	0
17.75	0	0
23.567455674596	-0.325197491724	0
16.25	0	0
16	0	0
22.645812614293	-0.197864648876	0
22.75	0	0
22.5	0	0
16.75	0	0
17	0	0
24	0	0
26.914424714815	-0.337869958787	0
26.621963281699	-0.624626679172	0
26.977877660759	-0.778408201088	0
26.622424322919	-0.264588309935	0
19.34462271879	-0.199329831305	0
19.25	0	0
19.118057075065	-0.225686869553	0
19.5	0	0
26.75	0	0
27	0	0
27.5	0	0
27.604422363523	-0.298869962794	0
27.75	0	0
17.650384190064	-0.227839036584	0
18.343198956448	-0.236734208617	0
18.5	0	0
24.25	0	0
20.143897114391	-0.233773711865	0
25.5	0	0
25.25	0	0
25.344389320279	-0.31693710653	0
21.059546193318	-0.24845941382	0
20	0	0
25.842927934822	-0.248287716678	0
25.75	0	0
25.613904645132	-0.216025146631	0
21	0	0
11.763551406169	-1.481607093928	0
30.981104050195	-0.5526690913	0
30.873880294509	-0.217692518774	0
30.706626759758	-0.34945139905	0
20.75	0	0
20.85240828135	-0.178025243856	0
23.75	0	0
20.66289882074	-0.189089155251	0
30.204950808504	-0.791758966623	0
30.715535843381	-1.149995259266	0
30.543724897762	-0.572259098027	0
30	0	0
30.180216671806	-0.343473673313	0
30.25	0	0
23.229584388362	-0.458653998547	0
29.5	0	0
29.623391954444	-0.322069028408	0
29.75	0	0
21.618913855927	-0.233585823579	0
21.75	0	0
29.348490380579	-0.521100538161	0
29.36294710412	-0.230601226356	0
22	0	0
22.25	0	0
28.25	0	0
28	0	0
28.129259193923	-0.314252106503	0
28.44374413871	-0.484576386004	0
28.100199615755	-0.812038297775	0
28.649230646972	-0.871769248311	0
28.618403654115	-0.227691192115	0
28.5	0	0
28.387848605749	-0.205892081491	0
29.054768525933	-0.708603081552	0
29.344906532636	-0.846887322836	0
26.327430876245	-0.35930637997	0
10.349120516034	-1.04150119828	0
10.894920134778	-1.514321070539	0
24.59640839418	-0.191760546865	0
12.75	0	0
24.5	0	0
13.102881121377	-0.411296235356	0
25.099388239946	-0.214879887129	0
25.97986022697	-0.52841375324	0
24.398993403151	-0.196312410538	0
17.860840746535	-0.577367743328	0
17.566481510048	-0.529340016102	0
26.5	0	0
16.637148248735	-0.188015807345	0
18.183918302467	-0.396443618316	0
27.159348252167	-0.205297590358	0
27.357530053515	-0.198815038154	0
27.25	0	0
15.060354649709	-1.112587998155	0
15.51532665618	-1.043792149387	0
15.178150912169	-0.713100616689	0
10.051363365948	-0.719159376333	0
14.661248691948	-0.27865166374	0
14.75	0	0
27.868836823455	-0.217301839861	0
31	0	0
30.75	0	0
-0.020273477909	-1.415389842481	0
1.054972770973	-1.487485199502	0
0.512583677021	-1.0438154777	0
0.75	0	0
2.361419414365	-0.794513604096	0
29.890297721653	-0.2433406165	0
30.473599299501	-0.238575611274	0
30.5	0	0
30.660802173874	-0.161931182737	0
28.783812899585	-0.467926883932	0
4.937022539393	-0.72440615077	0
6.696914540879	-0.380672503721	0
7.434272221796	-0.695675918868	0
15.339606453815	-0.166204802571	0
15.281953315711	-0.388999642276	0
11.893544445085	-0.335972898148	0
12	0	0
9.753796445798	-0.478866225926	0
7.720012958977	-0.638314519759	0
21.871398197179	-0.313006985103	0
21.615176662754	-0.521922347305	0
21.856785525528	-0.665128848631	0
20.792152536902	-0.448319093295	0
21.109577821412	-0.527879642114	0
21.360297691811	-0.734200004244	0
15.547854961707	-0.580173571081	0
24.496861814148	-0.467031445896	0
25.067351422649	-0.463427753535	0
24.81263825963	-0.684738154192	0
22.865620821195	-0.218348593093	0
23.443705587002	-0.773171720633	0
27.277617447467	-0.489224417775	0
27.863714790534	-0.471681393437	0
26.239117668995	-0.863279739365	0
29.896797054636	-0.547765129844	0
29.612773839625	-0.699757135752	0
29.867172666547	-0.87444432816	0
29.610354212963	-1.521444655905	0
29.59548165142	-1.071765512911	0
29.115129171034	-1.220660174798	0
31.345359428525	-0.458952144926	0
31.144859415042	-0.241304201582	0
15.919565295974	-0.746550096707	0
16.063006820294	-1.289595303187	0
16.5	0	0
14.900855313538	-0.178071167744	0
14.161016743654	-0.72559708689	0
19.011498044983	-0.834202892304	0
16.760433281999	-1.263698818643	0
17.280361389946	-0.931704507314	0
-0.627742252535	-0.296285438777	0
-1	0	0
-1	-0.5	0
0.625738545692	-0.228405936136	0
0.5	0	0
3.313957665883	-0.865581185485	0
3.619156095452	-0.800599314657	0
[...]
CELL_DATA 986
SCALARS 160.00_0.19 double 1
LOOKUP_TABLE default
10.413378591175 8.8749242131223 8.3510986077489 7.5728380734485 6.8816419025901 9.5022555504341 8.4277138986945 6.3808525516023 9.9398408704777 8.5121845037853 8.2153246906859 9.4563956500347 8.4651862930522 9.7678326055349 10.008159752584 8.4950543872895 5.0528163118587 8.3015395299036 10.736501481956 10.479838317998 10.217082155149 9.872016627145 9.9276916474994 9.7745192349418 9.3598189941558 9.8034699478493 9.4403781716722 6.6401405189777 9.7805652237192 9.097210099076 8.2779485533483 9.2652070208883 8.9796429351819 10.289099956727 8.0406053792141 10.009187532003 9.3538738617478 9.1939022049043 6.5169758953755 7.9416681224796 11.16938211171 7.3153188826055 10.000298225396 5.3732960772224 9.6748678524017 9.1413584136326 6.8164312410318 7.5519883168776 9.2452405420645 8.7501674619082 8.5457938994755 7.830752797634 6.8587035985279 9.2898473960724 7.2576569154335 9.8454950945167 5.2912233443686 10.121896156507 8.9388413502182 7.9892222727637 9.2112460678453 8.9159187400757 10.211543093529 10.846906322163 10.05070175943 9.7399298271186 7.8982494812825 7.4140536565079 10.445537298648 8.2628085361478 10.944762979195 10.072385966441 9.1963231468832 9.9563921628078 9.5688309974976 7.7568613970856 9.5337505534077 9.6325540084192 10.200619986472 9.97413404103 8.7454884452325 6.8004822097571 10.060752962511 8.6101590744667 10.855550940403 11.409529003824 8.6618003448033 10.327651135854 9.5948843903733 10.356304194182 9.5414846069128 9.9010308560786 8.0008860577766 9.2881319791356 8.998559371819 10.334189312193 10.257861167266 10.333947262208 9.8107654280747 10.158651823079 9.3101380855115 10.325518124576 8.8744762207469 9.577897084086 7.5606288047392 6.8557105263248 9.5765531063048 8.3216284184322 8.3841489902169 8.7709453491339 8.2701416391123 9.7618179474175 8.8203396089324 8.9410661567877 9.0871198342456 11.932153992579 8.6906231820698 10.593647736931 9.0023208581527 9.292584264376 7.5818741265859 10.644414390857 8.583971221068 7.7753904763908 8.4179415120008 9.9473506734553 8.2504856062 7.6668246149482 10.064086633687 9.3784963420082 8.7258705853752 9.5084861354359 9.4941697321067 10.4121510224 7.2360850056052 9.3958448827815 8.1177488199395 10.039708243214 9.4613243350219 8.1841622520905 8.8141908212544 8.0850356082165 9.4257743697207 9.4383135788428 11.779360175768 10.686421328173 8.8642200792793 6.7417362207276 8.5292646707584 7.5582634962931 10.568827088634 11.119701196058 8.2122851356842 10.356324131732 8.6000749129505 9.9082396839164 9.8498546213177 8.3028791965033 8.253318098239 8.1658216841408 11.562938239585 9.3940780757191 8.8976001229155 12.068778645034 9.6475799978011 9.1496775823208 6.0610578787808 8.2707000126774 10.764659706556 8.9565598520211 10.853822214293 10.640733803724 6.4061829648594 8.0621589398669 9.1381802873769 9.0526852238012 9.9920292712866 9.4846441630482 8.033021901011 8.5938015221116 9.9027300208565 8.7833177769456 9.2939694687588 6.804981653717 7.078990911484 10.330250458139 9.1563775991902 9.8249654610852 8.1003021375812 6.7870429111071 7.6557562969123 6.1698783015134 8.8761928654763 6.4957586579937 9.0813684248529 9.326167024801 6.4352143688031 9.9799455294361 9.0822132250141 8.9434638989392 9.5253151206976 8.6301021710975 8.6396360308604 8.793784644368 9.5608091720331 7.5317649681726 8.8169698314984 9.0195301575045 8.7305156517153 9.4851847390604 8.7060009810116 10.112079529288 8.4710942513938 8.127326900211 8.4217472610037 8.4901103901235 6.0038522656194 8.4353619827519 6.2937341522948 8.4872616344229 9.0237858552515 9.4448496467361 9.6466058441451 11.265565487846 8.5099561301203 9.8145514017528 9.0429352196198 8.7324626946257 8.5693780290649 10.529219628688 9.4160714638983 5.5777749377951 8.4739565968633 8.5798895600529 8.4077282869405 9.2345540810064 9.213298868385 7.125964060115 8.7456044855515 8.5462283774847 8.0768362568358 7.6372786821755 10.14443483538 9.3277246519965 8.7638664717277 9.6594839425338 8.0532693126953 8.9617628252394 8.3219502441455 8.3850547547662 7.6089552090758 8.2542260871434 7.1149360789391 8.745023274878 9.5723100205422 7.6899768404376 9.7192843155828 9.2643884598846 10.656064845876 7.5977305276569 8.8950120237114 8.3525863139816 10.123243700725 9.3730301977364 7.9563328614336 10.645704501635 8.1243403629695 9.9319865500565 7.737999716212 7.8671472370672 9.038890614807 9.6647796676495 9.0261648377747 8.8756235585533 9.555528248523 9.936393949603 8.0020367823344 8.8213754190814 9.5399239101713 9.3558486160141 8.1009557047118 9.6917603724962 10.847469905357 10.349864137178 7.1543458093168 10.669574369169 9.3879000438931 10.585097643852 10.546061758467 9.4008494883044 8.6040226731744 8.0605546277634 7.7941497195417 9.9476515394712 8.7615347078688 10.035218601723 8.675021646007 9.7152041996803 10.600030549378 9.6001578309007 7.6017152323184 10.103392488563 11.26155544845 10.018009546551 7.1909002600373 7.8088020483046 9.1289012508878 9.6400173401286 8.5276979104974 9.2600562891223 8.8767680749267 9.331744739679 8.402302646931 8.5460896043144 8.6307362475472 8.0011731299302 9.3167366276462 7.4929398012982 7.9389851560425 9.0853725736404 8.0146527822429 8.6786149253046 8.5493214541422 8.0985343961381 8.2125157254017 8.1106759820461 10.136706237476 7.0909986427857 6.5325691797551 5.1440732904436 8.0563550268001 7.2115761152956 8.5540753577926 8.6487587371353 7.8685681133298 8.5881711951071 8.4910773592814 9.0591867322748 7.7555365482453 9.8159594826006 5.8089321900991 6.4617056043981 11.202609876499 9.6150073435613 9.8692178777661 9.2213899425786 9.1813079307561 9.6986219668097 9.0442241105127 7.8170316163017 9.0565430026918 6.824821582396 8.5008727351412 6.3017282766826 7.6215431652416 6.6477670087023 6.3578119852167 7.783734811828 7.3382540365669 8.4323545539937 7.9260409102005 5.9910789462156 7.5642089925391 8.6891576216061 9.737270863206 7.1516800679013 6.4351510537912 6.0966729340229 7.4091656857722 9.6041737064627 9.9524997551181 8.0452707705975 7.4318997892736 6.7208411861647 7.8896348992518 9.0083364027584 7.6485709824569 9.9023145624958 9.6512389540612 6.9115915668867 5.8245317730186 7.8163891367606 9.0369421268691 9.2702992217088 10.888257385799 9.624568586647 8.4464060580763 9.9230093016812 7.2141947654323 10.954342742525 8.5885670547658 8.1431392562984 6.6857774270266 9.1148359766346 8.0405062045251 9.3771095616623 7.7098933733078 8.6788705701527 8.1029223060165 8.6907340970546 9.8601109184149 9.8046868080292 8.8606144512983 8.3552124135818 6.6214479349176 10.532195679623 6.7988070033613 9.2387679273197 10.083306228364 7.929998799743 10.686657610291 8.671284229316 8.2573354143885 7.7690479319608 8.8366106426651 8.2884503057295 7.3305537974104 7.1744106687984 6.1800188324923 7.6715104821398 6.3593061019581 9.3244256115938 8.7424361645716 7.172775429909 7.3318380845939 8.3319064171056 6.8930705892447 6.8133434990646 7.5582054262985 7.018342322581 7.3942178574841 9.8435959126295 9.0139819519577 8.5229083692868 7.9888182085014 8.8315403407378 5.6590358901535 7.8713783957568 5.336504249194 7.7017913077755 5.7590255392981 7.6333308312151 8.8393713271808 8.4570537762667 6.1135681007903 8.7717699269938 5.0457323588325 9.1799182678697 7.2421390969667 7.7842816842439 10.088516689315 9.9651161592982 10.038010508521 7.5740585796798 5.8826270742835 4.6791951415154 7.5251813910272 9.4799364670698 7.9969578830817 8.2177277094272 7.6448421653657 8.3250218948181 8.2249703382419 7.8230920354264 7.5007083913575 5.3828350336617 6.3320012315021 7.4914547296032 6.1036063582509 5.4634685915551 6.2846238599507 9.0807232422551 6.9913990022895 5.4466986067207 4.8181379063699 9.2149509768128 7.9852905408851 7.801419789647 7.318585854598 6.0246952031319 7.1585714800288 6.0115282490311 6.1943971357767 9.6737027966211 8.2774446764427 7.6080073085209 8.098827611746 9.2764902305732 7.5108511365496 8.2345061772766 5.1707989220491 8.5885800380253 9.5677926720119 10.187584617605 7.493935911573 6.3847973088954 5.1288891997172 4.2582290869575 6.9802588391579 8.7898375327676 7.049818850915 6.9577153412493 5.88105322285 6.8392353381039 7.8320781006286 10.035691076322 5.7462504882566 8.7810109931463 9.8820987368301 4.5276627659463 8.3100813282577 10.974898445114 9.2472740921805 5.8835171677966 7.8980586883021 8.1201104969234 6.7660128906416 6.1763097997925 5.522481326592 9.1738686929544 9.0710098170576 5.50502753743 7.6089329320669 7.8042623499827 6.2982115883051 5.8174978135311 5.1874883151736 9.04450887601 8.2350892434146 7.9893495497704 6.990124559418 7.9590839907295 7.3055766783221 8.3309876466576 6.9615244017397 7.8289518948168 8.7357286742267 8.3433100284682 5.3233099967541 3.9076705293662 8.0242669288563 6.086923417441 8.2671472638316 8.7646680256309 5.7224620160369 8.7659961998982 4.2124577892738 6.4590803317753 3.8426675476671 4.6582725370112 8.2676994658195 5.8268012716174 8.0860238087999 5.8217013917339 8.2001823621525 7.8243498471422 6.4768296910062 7.9542242292213 5.4747195686916 6.3042861120108 6.8560023112294 6.3446646910968 7.8938521435489 6.0162227243365 7.2312290457944 8.9248852714616 5.6440525741628 5.0387001348676 7.4579105684561 6.9847527275084 10.161320703394 6.4349440216563 8.3559517471454 7.0324348633535 9.3177043438686 9.0618184312928 6.0079221562667 4.293717723944 7.7316623718221 6.8980381489239 6.8939055862205 6.9226954519776 10.039415796955 8.4391034444083 5.4598674314573 7.8808601332863 9.1257571870326 7.8014876525379 8.0302591440469 7.2942116401681 7.5197932785982 6.8092392035041 4.338333777952 7.5304286652048 4.5419337151393 7.9146579447914 7.5599223555505 7.8481226240443 6.1613004637998 7.1628542092113 7.6910177085093 7.4126506498076 7.2646004005854 6.2523579668714 5.1030770491069 4.2215578976411 5.2745254414102 7.1343448109906 9.0353650128373 7.274333517503 6.4605976359758 6.8457394643116 5.67797538891 10.747326891496 5.5726560946201 9.7651710500674 8.2689214052023 4.0432310922414 8.2572886861933 8.29287381312 7.3182288933319 7.9597555437607 7.0278291083933 6.0512638696701 6.0395603074777 5.6891349604723 7.0523926083373 7.5932681126441 4.2013443874775 5.2064933373634 4.5721077997128 5.6944197150413 5.0486056831586 8.4519643544883 6.0280238423622 8.1484589998681 4.9676404239447 5.1867598843083 5.5780602979405 7.7147420353159 4.6334937660857 4.5744405947204 6.6738667016313 5.473817877424 3.9878783222705 5.863977192903 8.8698819966366 8.5902886293402 6.8277723573482 4.8129142495809 5.2840474578513 4.7839532448906 7.5626851091454 6.7201051330963 7.3950557081177 6.8094736885441 8.5318463795466 8.0630166012698 5.6782407909612 8.1521463664273 5.8739348732581 7.9832464686303 5.8108687473798 7.5652637678187 8.298972528665 6.6537140215253 7.6274417584348 7.2804192697692 7.5951220505271 8.0234771505866 8.2103353950067 6.9805885646531 7.7197282116966 4.4091026363428 5.72021564064 8.0338762280181 4.6791816074049 9.171524076224 6.7790231709644 6.296783054524 6.2685046738616 6.844692426368 5.6441778778422 5.1193175184505 5.0459971749313 5.0671593793028 5.1644990334424 9.2257643909257 9.8521167755292 9.5622511371073 9.0368531420223 4.9274677595262 3.7573433130661 5.5594734847231 5.9379530105715 6.2787969727335 5.6283827377746 5.8816001229692 5.2716016568692 6.1128799416544 6.4174051292778 6.1552354315268 6.0795119963477 6.1843494113576 6.5424517053174 5.7722789821503 5.3197618910815 7.4624156540135 7.3310396018319 4.8255935440161 3.6034659336045 3.4684226593836 4.4586273099814 4.2333871873927 6.8212535060462 6.1059511494147 7.3262445114319 6.445305571597 10.577017940433 10.412048547599 4.2501484971519 4.7305127875937 7.8413530598441 5.6283012054842 4.0786989842429 4.172861389129 5.3514681331108 7.0944011002928 9.240726270407 6.7295609378438 7.3009861203948 5.5306785032105 5.559099046417 9.5022270253241 5.088631750072 7.1234352774925 10.294587232088 5.3306474680027 4.4584516334237 7.6985080673564 7.853761962977 5.4171509340109 4.8159071009701 4.7054985913315 6.5205904976792 3.9073329241719 5.3049284590915 3.8392668629312 3.7285435888482 4.2741668517868 8.6574524321817 5.0438163140629 5.6797381019406 4.9576660345456 5.3852585042054 4.6734517199114 5.8689332150222 8.4342748288348 3.8834227773456 6.3027027241696 3.5341990055188 4.1849034717386 5.2975358682716 4.5654427989136 4.0739369188213 4.1001946155403 4.5718446445472 4.4261749302242 5.0532899235649 4.0464999619767 7.7124707435968 5.2529061895095 3.9188300437397 4.329644150581 5.0189637166154 4.9458704828458 7.0298248780614 6.9706694928211 7.6859561806873 7.3804726552405 6.521127183102 7.0168261204658 5.9759140767738 6.3984225420916 7.326714044739 6.9596674321651 5.5063693952726 6.1337617716873 6.0574090777614 7.3953782685695 6.6349041412552 3.6629566546061 4.8365016392737 5.6574365476902 4.6555404960824 4.5867738862014 4.2104694403359 4.3336287347992 3.9748223224545 4.6784029042674 4.0365800119058 4.6003732201774 5.0549244221495 10.098149991636 4.6261504480841 5.440109066565 5.2506558879124 8.6542849591612 7.4752873682994 3.9443201817102 3.8642902117058 3.6226623979131 4.6320324678459 5.1153890975249 10.953776924762 3.9634096365953 4.3805317043995 4.6223673860649 3.468710246312 4.5826076534698 5.5393490110491 4.9352148265177 4.8416934936777 4.2652261978913 4.912490699832 4.4713758602866 3.937724154661 5.0013600140388 3.6759155451049 3.977406285414 4.6747189205199 4.2831184603519 3.5104202476687 3.9329395851251 3.6074433152749 3.8010886158371 3.7154769321188 3.6801012005801 3.7370145508816 4.63042736771 4.4159297321891 5.5346944240258 5.7430605320005 3.9131139156966 3.5957021844779 3.5250294237199 4.2815075430108 3.6149083197364 3.6425759390236 3.6634338243246 3.6661749847265 3.7653700506804 4.1040903869617 3.754977869328 4.4131569318549 3.4571373145763 3.4652256776725 4.2945282481048 4.1964286212804 3.4960856712377 3.4788699742218 3.6626391295949 3.6909579330019 3.549797966082 3.6334737979326 3.5963503321195 3.7389265978872 3.7498124411179 3.5819425429764 4.0449712127638 3.673469328317 3.7014170307124 3.5257116398811 4.2758456753704 3.4477741689489 3.5716783369248 3.4986210194329 3.4459327644516 3.4572691174856 3.5689793213334 3.558720965613 3.6929389065225 3.6287684696618 4.3415798945037 3.5282338562922 4.025734620381 3.3877624496741 3.4769390278266 3.8017567956274 4.1266789925653 3.5652867356495 3.5185219467003 3.3986187485279 4.5643465327825 3.8854416646113 4.164851278366 3.9144034177418 3.5115895259177 3.5238298665658 3.4825111017288 3.4610678239718 3.9909888939079 3.6459746170143 3.6094671559497 3.7043605367341 4.1097302810092 3.8078208629613 4.0578187261025 3.3943917621616 3.5708306335121 4.4643402407895 4.1806203694938 3.8281365884945 3.6238424184441 3.9954757742215 3.385898804268 3.7639975290033 3.6425930692525 4.2173783367339 3.637217998736 3.7608893714248 4.2665475530143 3.6684929351584 4.2378787837212 3.795933623169 3.7958802824385 4.1539063757644 4.2784997506425 4.2156989262931 3.7537158797843 4.0349366552221 3.5609062298285 3.5255964177678 3.5154241935535 3.5779314882632 3.7266675628107 4.2392086394997 4.1519498252157 4.0514830075503 3.8209761760368 4.0574783742515 4.0099529494649 4.3184832365497 4.5102568197802 4.3435983743729 3.7163870945281 3.6781215599398 3.6160266638448 3.8349495367323 4.0461661388904 3.4751787155659 3.6635385811669 3.889745754175 3.6338158318091 3.8070432603265 3.6632821836006 3.9939995507516 4.0351468938414 4.1386631323564 3.9750761760494 4.3265235735634 4.3436543159678 4.2173724607137 4.1828808429362 4.1263948974928 4.3070288804907 4.3305722680181 4.3186949559795 4.2707623474452 3.8864072104316 3.6556819614934 4.3671382209321 3.9985997961282 3.8262655986494 4.0038405652824 4.1341121893056 4.2931301938848 3.9631852031272 4.1231967341951 4.3880555525093 4.3298187865461 4.3296321617985 4.3870618104404 4.1128504776903 4.3900124470661 4.3530612562763 
SCALARS 20.00_0.14 double 1
LOOKUP_TABLE default