# vtk DataFile Version 3.0
d-2__ created by libgimli-v1.1.0
ASCII
DATASET UNSTRUCTURED_GRID
POINTS 570 double
14.5	0	0
14.25	0	0
14.386963504964	-0.201738469428	0
22.399299936458	-0.310870122736	0
22.129824335287	-0.229914148082	0
22.126320781198	-0.518791771445	0
8.472303742627	-0.591754876635	0
8.780507935475	-0.76092407121	0
8.82173151259	-0.349253271447	0
18.663262297679	-0.667179415955	0
18.934786529245	-0.453308328646	0
18.636898038907	-0.29588182328	0
4.016904362632	-0.85330676142	0
4.076038737616	-0.331410355179	0
3.713721571226	-0.470767763626	0
1.89953779852	-0.269343012166	0
1.633800503821	-0.203067612233	0
1.644492760828	-0.441295523531	0
4.368408037607	-0.250833874131	0
4.337474161742	-0.544420985055	0
4.67745607622	-0.378433532554	0
1.406172533733	-0.772361039307	0
1.913288206557	-1.218576310882	0
1.90687689783	-0.651895683444	0
2.5	0	0
2.25	0	0
2.347047126858	-0.185539804102	0
1.374000926997	-0.300418771701	0
1.25	0	0
1.114902662369	-0.201591505098	0
1.067401015567	-0.470108640981	0
5.75	0	0
5.699780065382	-0.324747799653	0
5.924584257371	-0.172748359932	0
0.883560935405	-0.231136840652	0
1	0	0
9	0	0
9.117836368049	-0.253904480787	0
2.625577516194	-0.346770599322	0
17.859079774019	-0.943547525024	0
17.535029634209	-1.703182852412	0
18.338018094476	-1.366069799339	0
19.932263871771	-0.826489183604	0
19.881635677668	-0.346204516721	0
19.622287080959	-0.573770479943	0
1.5	0	0
1.75	0	0
23.25	0	0
23	0	0
23.109690227386	-0.220340974338	0
2.75	0	0
2.142562771237	-0.172460438312	0
2	0	0
23.332392704446	-0.202507275941	0
23.5	0	0
19	0	0
18.75	0	0
18.888143078348	-0.195773419804	0
2.90152418742	-0.185685383897	0
7.612175045312	-0.180627982114	0
7.527150943175	-0.401430797998	0
7.881917737402	-0.30462800112	0
25.630635194756	-0.512020961038	0
25.243766894324	-0.80097755811	0
25.758031115142	-0.952821630144	0
3	0	0
28.84859809239	-0.201276387394	0
29	0	0
28.75	0	0
4	0	0
3.835807353334	-0.199536243303	0
3.106904732949	-0.178783649348	0
29.25	0	0
29.092446172194	-0.305987136665	0
13.5	0	0
13.667851890428	-0.185102765244	0
13.75	0	0
3.75	0	0
14.407363653886	-0.441423674912	0
14.125469935998	-0.279652141152	0
4.25	0	0
5.061980176718	-0.407989246181	0
5.335512032876	-0.269401530321	0
5.113979852892	-0.173834924157	0
11.882046000841	-0.812345557852	0
12.478640631525	-1.146569360669	0
12.244190771573	-0.565936619511	0
3.633270844505	-0.195395238442	0
14	0	0
18.378272976509	-0.514977451159	0
5.5	0	0
9.619519097921	-1.16461851757	0
10.030576753886	-1.587265312651	0
9.961661342999	-1.070235523667	0
5.25	0	0
5	0	0
13.157975569138	-0.830425793913	0
13.83833027638	-1.238601004239	0
13.671302359608	-0.710707966059	0
11.325917093147	-0.8366783502	0
11.612143285947	-0.506264798476	0
6	0	0
7	0	0
6.83842404292	-0.188923754932	0
7.11236984822	-0.391746146843	0
6.631875629497	-0.169178192832	0
6.75	0	0
3.21002197083	-0.595267231049	0
3.445510026908	-0.608065324465	0
3.362318141622	-0.306501255187	0
6.120159502895	-0.164221934939	0
4.538525595924	-0.906226152762	0
13.233775457127	-1.737244787017	0
4.5	0	0
16.138065841822	-0.472802517973	0
16.126746690205	-0.221608117926	0
15.859319180798	-0.326402762318	0
26.080401003391	-0.227842452866	0
26.25	0	0
26	0	0
3.019224421113	-0.401469974918	0
8.234901607028	-0.35771789179	0
8.518285578354	-0.242327591839	0
8.328777073389	-0.153008859619	0
7.25	0	0
7.400656881666	-0.195280611572	0
7.5	0	0
5.385509485898	-0.709154879541	0
5.948697127931	-0.745234910621	0
8.75	0	0
8.5	0	0
8.25	0	0
2.214249105773	-0.404278959534	0
2.896561357202	-0.792481120253	0
9.25	0	0
4.920911116561	-0.192028847294	0
9.651670336652	-0.200847798694	0
9.849824537955	-0.19917205686	0
9.75	0	0
10.095049354068	-0.315754204277	0
10	0	0
3.25	0	0
6.738406513564	-0.710129601907	0
7.121614580011	-0.943026074581	0
11.345829942703	-0.314788260019	0
11.25	0	0
11.104427225455	-0.188863495516	0
6.052412255932	-0.372556729023	0
6.373371846535	-0.274163514827	0
10.25	0	0
10.380281579003	-0.241092027437	0
10.5	0	0
10.75	0	0
10.909079077441	-0.189427130481	0
11	0	0
6.25	0	0
6.5	0	0
4.75	0	0
3.5	0	0
10.672815698565	-0.318467932684	0
10.772487906066	-0.787092734739	0
11.020900486567	-0.439266778492	0
8	0	0
7.75	0	0
11.5	0	0
11.619450354737	-0.231443672836	0
11.75	0	0
8.139317726831	-0.163309591658	0
12.25	0	0
12.158949464947	-0.235415698299	0
12.412455385193	-0.275030800337	0
12.929165084344	-0.221336108042	0
12.686337592177	-0.258437422252	0
12.900449535554	-0.462768612232	0
12.5	0	0
9.405755833308	-0.325979504745	0
9.111697192308	-0.594170467817	0
9.457257345083	-0.753685223931	0
18.101369157139	-0.618560521812	0
18.336839281097	-0.861122419318	0
10.385948631267	-0.570640149046	0
9.5	0	0
13.411260455969	-0.342646276848	0
12.643108055516	-0.590179775368	0
13.137744715761	-0.195204172124	0
13	0	0
21.25	0	0
21.358341816502	-0.326561417551	0
21.5	0	0
13.816492716597	-0.40394453634	0
20.25	0	0
20.423452336785	-0.313445603959	0
20.5	0	0
17.789350393153	-0.390447709085	0
17.987794057246	-0.401472255242	0
17.881276545163	-0.206424156589	0
19.564465692234	-0.270867872644	0
19.290725118801	-0.49926248604	0
16.392319441256	-0.29915360323	0
19.443730892406	-0.923508713428	0
20.457987075478	-0.803203365193	0
20.167450719332	-0.505159975143	0
0.103762538371	-0.253013629949	0
0.267057015134	-0.483604909932	0
0.374713194419	-0.2320817565	0
13.25	0	0
17.415572543912	-0.230682214253	0
17.5	0	0
17.25	0	0
18.108153655084	-0.208141099276	0
18.25	0	0
18	0	0
15.75	0	0
15.544586046819	-0.246453491997	0
15.122708481244	-0.193620038745	0
15.25	0	0
15	0	0
19.75	0	0
24.149237782749	-0.319013340846	0
23.842766599446	-0.577371105011	0
24.183995039967	-0.73159476451	0
13.871646321742	-0.17394291424	0
23.862588150518	-0.245417872715	0
16.84024277193	-0.203626765466	0
16.704049384397	-0.435508179396	0
17.112673188265	-0.38804641709	0
24.75	0	0
24.832880292394	-0.290571430318	0
25	0	0
16.40158555625	-0.755912194683	0
16.850299990829	-0.757941865332	0
17.75	0	0
23.567455674596	-0.325197491724	0
16.25	0	0
16	0	0
22.645812614293	-0.197864648876	0
22.75	0	0
22.5	0	0
16.75	0	0
17	0	0
24	0	0
26.914424714815	-0.337869958787	0
26.621963281699	-0.624626679172	0
26.977877660759	-0.778408201088	0
26.622424322919	-0.264588309935	0
19.34462271879	-0.199329831305	0
19.25	0	0
19.118057075065	-0.225686869553	0
19.5	0	0
26.75	0	0
27	0	0
27.5	0	0
27.604422363523	-0.298869962794	0
27.75	0	0
17.650384190064	-0.227839036584	0
18.343198956448	-0.236734208617	0
18.5	0	0
24.25	0	0
20.143897114391	-0.233773711865	0
25.5	0	0
25.25	0	0
25.344389320279	-0.31693710653	0
21.059546193318	-0.24845941382	0
20	0	0
25.842927934822	-0.248287716678	0
25.75	0	0
25.613904645132	-0.216025146631	0
21	0	0
11.763551406169	-1.481607093928	0
30.981104050195	-0.5526690913	0
30.873880294509	-0.217692518774	0
30.706626759758	-0.34945139905	0
20.75	0	0
20.85240828135	-0.178025243856	0
23.75	0	0
20.66289882074	-0.189089155251	0
30.204950808504	-0.791758966623	0
30.715535843381	-1.149995259266	0
30.543724897762	-0.572259098027	0
30	0	0
30.180216671806	-0.343473673313	0
30.25	0	0
23.229584388362	-0.458653998547	0
29.5	0	0
29.623391954444	-0.322069028408	0
29.75	0	0
21.618913855927	-0.233585823579	0
21.75	0	0
29.348490380579	-0.521100538161	0
29.36294710412	-0.230601226356	0
22	0	0
22.25	0	0
28.25	0	0
28	0	0
28.129259193923	-0.314252106503	0
28.44374413871	-0.484576386004	0
28.100199615755	-0.812038297775	0
28.649230646972	-0.871769248311	0
28.618403654115	-0.227691192115	0
28.5	0	0
28.387848605749	-0.205892081491	0
29.054768525933	-0.708603081552	0
29.344906532636	-0.846887322836	0
26.327430876245	-0.35930637997	0
10.349120516034	-1.04150119828	0
10.894920134778	-1.514321070539	0
24.59640839418	-0.191760546865	0
12.75	0	0
24.5	0	0
13.102881121377	-0.411296235356	0
25.099388239946	-0.214879887129	0
25.97986022697	-0.52841375324	0
24.398993403151	-0.196312410538	0
17.860840746535	-0.577367743328	0
17.566481510048	-0.529340016102	0
26.5	0	0
16.637148248735	-0.188015807345	0
18.183918302467	-0.396443618316	0
27.159348252167	-0.205297590358	0
27.357530053515	-0.198815038154	0
27.25	0	0
15.060354649709	-1.112587998155	0
15.51532665618	-1.043792149387	0
15.178150912169	-0.713100616689	0
10.051363365948	-0.719159376333	0
14.661248691948	-0.27865166374	0
14.75	0	0
27.868836823455	-0.217301839861	0
31	0	0
30.75	0	0
-0.020273477909	-1.415389842481	0
1.054972770973	-1.487485199502	0
0.512583677021	-1.0438154777	0
0.75	0	0
2.361419414365	-0.794513604096	0
29.890297721653	-0.2433406165	0
30.473599299501	-0.238575611274	0
30.5	0	0
30.660802173874	-0.161931182737	0
28.783812899585	-0.467926883932	0
4.937022539393	-0.72440615077	0
6.696914540879	-0.380672503721	0
7.434272221796	-0.695675918868	0
15.339606453815	-0.166204802571	0
15.281953315711	-0.388999642276	0
11.893544445085	-0.335972898148	0
12	0	0
9.753796445798	-0.478866225926	0
7.720012958977	-0.638314519759	0
21.871398197179	-0.313006985103	0
21.615176662754	-0.521922347305	0
21.856785525528	-0.665128848631	0
20.792152536902	-0.448319093295	0
21.109577821412	-0.527879642114	0
21.360297691811	-0.734200004244	0
15.547854961707	-0.580173571081	0
24.496861814148	-0.467031445896	0
25.067351422649	-0.463427753535	0
24.81263825963	-0.684738154192	0
22.865620821195	-0.218348593093	0
23.443705587002	-0.773171720633	0
27.277617447467	-0.489224417775	0
27.863714790534	-0.471681393437	0
26.239117668995	-0.863279739365	0
29.896797054636	-0.547765129844	0
29.612773839625	-0.699757135752	0
29.867172666547	-0.87444432816	0
29.610354212963	-1.521444655905	0
29.59548165142	-1.071765512911	0
29.115129171034	-1.220660174798	0
31.345359428525	-0.458952144926	0
31.144859415042	-0.241304201582	0
15.919565295974	-0.746550096707	0
16.063006820294	-1.289595303187	0
16.5	0	0
14.900855313538	-0.178071167744	0
14.161016743654	-0.72559708689	0
19.011498044983	-0.834202892304	0
16.760433281999	-1.263698818643	0
17.280361389946	-0.931704507314	0
-0.627742252535	-0.296285438777	0
-1	0	0
-1	-0.5	0
0.625738545692	-0.228405936136	0
0.5	0	0
3.313957665883	-0.865581185485	0
3.619156095452	-0.800599314657	0
[...]
CELL_DATA 986
SCALARS 160.00_0.50 double 1
LOOKUP_TABLE default
10.089684197967 10.031103649022 9.0984540443872 7.3800924563015 6.6142476752227 10.233558624874 9.4594450708325 6.4793627930835 10.717732471446 9.1335178330369 8.7360328342923 9.944576884572 9.1436449598938 11.535061298456 11.288288995104 8.7253590319774 4.5402351396484 8.7805033506429 11.077387256294 11.718098875328 11.887829473815 11.078239588256 11.080282477339 10.714728764071 12.160715714 10.721674138058 10.034179330602 6.6093073145215 10.295927287855 11.623154280902 8.5885590715924 10.389026874931 10.837594098217 10.851605403256 7.6216279200371 10.921008837429 12.016424139532 9.8873252253749 5.539220935015 7.6210451213465 11.354946706187 6.6881682754291 10.945554071312 4.8312823538325 10.361598886688 9.3430176854336 7.0115636334354 7.1846003950972 9.602157860992 9.8440558102275 9.1739660249137 6.9139096116315 6.6100038106291 10.089856309392 7.5345744134161 10.325905550702 4.8257933393711 14.075883078179 9.4475445257632 6.7388619041721 10.342847138105 9.5503016038017 12.03811402804 11.378598283007 14.632366439964 13.898092593769 8.2353581456106 7.4966938674275 11.635706319841 8.9736764456953 12.334963577948 11.513879469363 11.774320488139 11.695379201918 10.710737529216 7.9739886083821 11.98511762392 10.713125240553 14.237386315007 12.069391964419 10.621714266682 6.3129675364521 10.299643575645 9.1716504768737 12.204446364989 13.795823711838 9.3661451408158 10.839140931707 15.534613206188 15.747279222252 10.441124152377 9.9245046833639 9.0128382279699 10.358053555505 9.6881503775975 11.918159267961 12.498634766287 12.08923000101 10.899864680589 10.239108766289 15.365898665186 10.009498538239 8.4487141519873 18.928496049336 6.9351785901675 6.0180828849886 10.503929609922 7.3414465196977 9.2968442251804 8.9148466086154 7.9106699069791 10.486396930165 9.5502071605798 8.7549992988882 10.265168991132 12.510118463739 8.8265734370664 10.745170514679 9.8036643235375 9.8422553593303 7.7803175145742 11.807267931429 8.9516280235886 7.5899267822837 8.3765395798772 9.9256056017688 8.6105949278755 7.4093810593349 10.568187328662 9.7013942040776 8.2738076924809 10.950653123474 11.751441796845 10.669825141986 7.0387643347127 10.107877825114 8.2561296184585 11.402451146604 12.860630917672 8.6343796909947 10.678648513431 8.4055851628175 9.2154980547403 11.054974996273 13.768422012812 12.37187880071 9.2042451564197 6.6908651752571 9.2753291813406 7.8809793097949 12.05724870204 13.426878106967 8.4089745681722 11.150169956677 10.131612946558 12.143894141213 11.670577082394 8.0803055389553 8.2651265524761 8.604311541367 13.185307352608 10.746053845201 8.3523038421821 14.883466365005 12.014505769492 8.4560938947608 5.5454231981003 9.1356338440154 13.493126156526 10.196754198332 13.134352841575 10.575550234575 6.1710818933079 8.0042134251741 10.121412316091 10.738340175411 10.810768980298 9.7973560124818 9.1487998690938 10.344954430987 11.85255471486 10.18404231874 10.550580944325 6.7716465611888 7.1724381615041 12.571317620175 11.17880170584 11.731511536663 9.2638124050489 6.8266047632912 8.217903074178 6.0126790556784 9.6434367557435 5.7068510372699 11.304284265227 9.9217633774357 5.6987227692721 10.419567122722 11.188298850855 9.8020558246929 11.788773453747 9.6547613679498 5.9051821855226 9.4910703601983 10.438756169735 7.1317615166626 10.006447868035 10.138926793925 10.159234456795 11.94775200192 9.5817150366145 11.758262182775 9.1766198761324 7.5035598526152 8.208401034436 8.1650104275058 5.3381938681811 8.757881474417 5.7910071519646 9.6110096616712 10.087505746011 10.849811348542 11.39268226331 12.574888536242 10.031399090241 10.834581574027 11.160887831003 10.698706959396 9.2758361503047 11.030709077589 11.240437166026 5.3318903718339 10.269334056242 10.298950161794 9.6512298122143 11.804268984169 10.030567258631 7.2923484825958 9.4485619476689 9.3873548998977 8.1420649733402 7.6762515649357 11.365129081852 9.7828909889376 9.9044375137412 11.737823305209 7.8240417677291 10.316463853042 9.4738787141136 8.6874763552276 7.4849859228322 8.4714466516362 7.0715102360057 10.378797489079 10.893285915809 7.4505006830286 10.08850304012 10.351230244844 10.746681064362 7.8421320252344 9.7290639734163 9.6496469201191 12.055570117526 10.338026367126 7.9940357707988 12.611288763658 8.2716571542244 10.096417208365 6.8898650057066 7.5279031673876 9.7141163954939 11.130768331177 9.713284046633 9.6727630986269 10.219351678112 11.381342599243 7.479581708109 9.5112997756736 10.397947116081 8.1235688295684 8.4318949982316 9.9672205597332 12.845017899113 11.509718659661 6.8715849082417 11.890912032264 9.8378279533285 12.301333239774 14.847045061864 11.09154460106 8.8097169679613 8.5321379518814 7.8937092168413 11.101229156729 9.152483312422 11.841669964246 8.7486223520633 10.768660907764 14.763318827502 9.9593095973431 6.9825108624247 10.797724754244 13.384701882315 11.420581392894 6.3926703688329 8.1309816071563 9.9281233903535 10.84948230936 9.4615574846829 10.839946973002 10.2354097049 10.756480198901 8.1345324838355 9.0298095915241 9.5020024840742 8.5335270806905 11.005982751182 7.7803186519252 7.973557683528 11.414452146838 8.8626458882326 10.27458838368 8.4309967554844 8.0074332836126 9.002535647714 9.0478751054426 13.0947380497 7.3275767575998 6.3223736880827 4.7130055745518 8.9983701548247 7.3242300103037 9.5453170000118 9.5756212996275 8.2080134556632 10.025350574415 9.6757722893578 10.693652774291 8.3729026539517 10.530450827051 5.2638349731151 5.6595407787608 12.611585765332 10.262665191766 11.25725107761 10.498334750705 11.680526738231 14.022434090731 10.572523706346 7.2077339074066 9.3894438665091 6.7268253456451 10.073355212795 5.9638908238595 6.911425549656 6.5970128318277 6.471677094259 8.1626649545893 6.4488536097588 8.9103821130828 8.0440621396342 5.5524125623548 8.0465165765336 9.2667067777994 11.108732726716 7.291375287549 6.3526502291651 5.7169268500254 7.6769090246444 10.790883085411 10.627578486854 7.9692818985022 7.4110970200128 6.4580167935955 8.0925829509108 9.5888121685667 7.7796821592332 11.16456100747 11.222504317413 6.1471100935835 5.3788727153122 7.0932886622976 9.5724273402186 8.9649500748532 12.545315663735 16.831294792202 8.6426192650721 10.673765978836 7.1515130522775 12.969556222214 9.0763389703538 8.0318467219363 5.9001100099319 10.071129025639 7.9354179932519 10.231020381853 7.1149041947941 9.5896373509619 8.0010756326169 9.4950258370238 11.370414963714 11.638377962486 9.9660349771491 7.7503048545387 6.2787422122959 13.455757965577 5.9874752045781 10.06878409274 11.272395665588 7.6349696272424 12.752322854461 9.1053788099059 7.7931002506251 8.0593658445663 10.02019930185 8.1434000701391 7.0885258295564 7.2468561816096 5.8650830536005 7.2795464424313 6.2920185557659 10.860624603742 9.6124615993303 7.069649658742 7.520251770713 8.409504146006 6.7265279170059 6.975916350595 8.1064207139278 7.1335422620397 7.6765731650148 11.99995098164 10.35498043046 9.2657264695041 9.0405148891632 10.353940693158 5.2541924645323 8.229527497667 4.9046499174356 7.7661710032718 5.4044356042477 8.0146534890552 10.304764269139 9.5882405997804 5.5494675477386 8.900288474066 4.5171512529611 7.895463111673 6.5977518163502 7.2119477084798 10.652276456801 11.189113348631 11.114779442602 7.1402613932199 5.6172785847943 4.2960798127015 7.4056984606191 10.648266612287 8.5625826048783 8.7090451310071 8.0828883513184 9.0343632395326 8.7775159403546 8.1336133360426 6.9551114684664 4.9171682400001 6.256930456249 7.2955230863411 5.6492758797223 5.1144880673951 5.8436587948359 10.03525023276 7.0674985578343 4.9911515404383 4.4041321145176 10.694679314497 7.9271004338739 7.6927882612859 7.0741591262652 5.7852532673166 6.9491072135992 5.548308452553 5.4472908130716 10.981274986926 8.5443219966005 6.803515797342 7.5720825453211 10.689029450684 7.6649430675752 7.6802851333674 4.7493433372207 9.2651083032265 10.76911630603 11.52464072288 6.6937855708119 5.7598137040818 4.8320660038249 3.9796687643997 6.6671825781559 9.0461195100962 6.443220064429 6.7657832966749 5.1841784416048 6.4001229837784 8.2931739409286 11.405495038893 5.4194539280654 9.5770840538781 11.192189112981 4.1145271177538 8.4208514083462 15.490049482961 10.015685997893 5.4792623827677 8.428066081141 8.0962509966717 6.5553305317584 5.9306992150992 5.1265064948635 10.263225516311 10.232012385322 5.1403454431558 8.0384877119375 7.7485953094228 5.9899971580933 5.6538005614595 4.7962520911241 10.50369940974 8.9834651277353 8.7481519351126 6.79159642313 8.9591384066608 7.6657943507787 9.0280081626015 6.7734789809578 8.7245517327274 10.185859308364 9.4088654458223 5.0467375880951 3.8340576665899 7.830071390584 6.0409903038966 7.9868556711548 9.3902794330193 5.3618873486322 9.1438987223962 3.8688069594165 5.9013479807571 3.7101822692187 4.371764399718 8.0507316209722 5.6172119330694 6.8106879222872 5.6962296791301 8.4439121124219 7.8446457017963 6.1920148765489 7.9611969543579 5.37901563572 6.2201214024404 6.5139028825187 5.9969200474201 8.2843731904976 5.8851490765758 6.9611580142671 9.7676644877309 5.5008207980721 4.7266431947401 7.3584073534213 6.8378087838206 11.268461881992 5.7361989968079 8.2949132873442 7.2781930072648 9.9341747062137 9.6580250662784 5.6187123303226 3.9282743766057 8.0794352302516 6.8647943037287 6.3370954308763 6.6483656153688 11.462943962786 7.9944211038458 5.1798578123524 7.7278642691844 10.334592425642 8.1702700997024 8.6196408338341 7.463466460706 7.9170948462847 6.7868083925572 4.0832673556627 6.5419291394667 4.3101773288245 8.123964792355 7.3965464267889 7.0304639304022 5.746480954427 6.6225470892698 7.695864603472 7.2435447534863 7.2572025355405 5.95820968404 4.6988548091073 3.8901481872212 4.9714358036627 6.7434580243 9.8935667631058 7.1624547859184 6.3518975516071 6.7328421771677 5.3612810724944 11.825352199851 5.0120480462176 10.830013828573 8.1673690810317 3.8862680884882 8.7834591849766 8.2330447147188 6.7849412541916 8.4322003709059 7.1000898375661 5.7112547939499 5.7686132424045 5.3017378849742 7.1495043337688 6.8432669477321 4.0042792371042 4.9217323935786 4.2211404641544 5.4935675006279 4.7556934719129 9.4271130612369 5.3201703398961 8.3325178740831 4.7264078887498 4.915070309852 4.8929974744195 7.4215991711921 4.3120081916253 4.4317033956936 6.5625254861113 4.8041768223486 3.8435228989958 5.5978739193458 9.088756040563 8.9409336610082 6.8699164692299 4.4488260355632 4.9517546852226 4.4719435841924 8.1216638044874 6.7210770783386 7.9282362595181 6.8407734925807 9.623980016871 9.0503997311785 5.2972309462392 9.089340265871 5.484979776552 8.8603793322433 5.7562963034373 8.1904875254725 9.344085704157 6.8697734397461 8.2386365446272 7.7514996460022 8.1505662555256 8.8436321096446 9.1060542519947 7.3035919096688 8.3407127367407 4.1405047618114 5.4977753020686 8.3407957794174 4.5561218683497 9.3371499261857 6.7561349820018 5.9463635010413 6.0029101844382 6.1456050511796 5.2476675996483 4.766026059598 4.7641042603671 4.6247567490496 4.72838243394 10.278505242323 8.9962948554879 10.497293206285 9.7438886451322 4.6376131223989 3.7080422571368 4.810372890181 5.2723569727438 5.9546976337045 5.3635876455903 5.6627746782951 4.9964388577552 5.8339080971492 6.1127581793507 5.8996364429315 5.7604429418807 5.9411352121653 6.6275502651539 5.4237665977956 5.1771772849816 7.9616354498269 7.7852424027321 4.6421083413322 3.5348733147051 3.5508321691593 4.2010039865728 4.0038348189339 6.8330469645394 5.5645941385982 6.6744832993147 6.3689380822984 12.624875235564 12.091108862937 3.9203635788213 4.4271270776463 7.1557151458805 5.2385339126562 3.752046118347 3.8989170062238 5.0414353889678 6.7641438520197 9.4924443579285 6.1500008009644 7.5529543801212 5.0206502367421 5.1123687659619 9.6112226412567 4.8095318432795 6.3330121847469 10.263994684078 4.8060355684908 4.1377057398058 7.5017563505212 8.0865575024008 4.984351878027 4.354371603251 4.4136753558149 6.076770728605 4.0384982142573 4.8800059202402 3.6997774208114 3.5935822123155 4.0891751561272 8.4962144398452 4.4938933547315 5.4170703709808 4.5857571011239 5.0788716434749 4.3289448933743 5.2259655698708 8.2479455810892 3.6664506769135 6.1516159088134 3.5390334746181 3.9190134032141 4.9769320325771 4.1996696605233 3.8243681608716 3.7964401086231 4.3277181797259 4.1958301417296 4.624654003224 3.8342994705074 7.165673278059 4.8344513894911 3.7648434660976 4.1727741848474 4.7504414233632 4.7177206226163 6.8466836741389 6.9961068422185 6.6176510949782 7.1008385719807 6.151055396892 6.59833701136 5.7401282858459 5.9302918642209 6.5574844009462 6.3515816646141 5.3009876777851 5.7641728137383 5.9147680262727 6.5008476819253 6.0445513610625 3.5290246740017 4.4178882454752 5.527974519102 4.4920759348529 4.2936893838687 3.9293640065696 4.0309325319696 3.6562272362267 4.2448191585201 3.8773401117256 4.1722687529303 4.6671536020359 11.494216908271 4.3233992641947 5.1333481919918 4.8649057005527 9.3143958038807 7.5113086024222 3.8057403488345 3.7467472919788 3.5316455765536 4.4473020600046 4.8131339705399 12.867582213046 3.7326514208491 4.0869339644625 4.2928929859494 3.5329544929607 4.6376210293523 5.4531297096169 4.8721845075522 4.7242703598737 3.891206569671 4.7174678240697 4.0786415107785 3.6566402614153 4.4665602827891 3.579881756903 3.7516636410465 4.4569254220233 4.3929698859096 3.4864112694244 3.7551785629048 3.442914406364 3.5868307630068 3.4974482797111 3.5049551501292 3.6686288424952 4.1839616472976 4.2676918153997 5.3037164522788 5.3497994899493 3.7741966659824 3.5851499997183 3.5267298417069 4.1240359134333 3.5793976204717 3.5734429286009 3.6173381555844 3.6170989031684 3.6172215353387 3.7583513165787 3.5523982682891 4.2109556366706 3.3754326393121 3.5871890915698 4.1565921896187 3.957674908914 3.5071067461282 3.4851435577289 3.6177241646602 3.6847701175639 3.4475772284784 3.455450906478 3.5106242687042 3.5527284681061 3.5216605283021 3.5598240824882 3.8653474509431 3.6481035389381 3.6899210615116 3.5275527669891 4.1397394161758 3.4890667157021 3.6100133272329 3.4179097806648 3.4436752894974 3.5138660761575 3.4687658113518 3.6011276132586 3.5789373701276 3.6169692374663 4.2774080200354 3.5475194420528 3.9409254040843 3.4420485044707 3.5121914369497 3.6739013471439 4.1595673929642 3.6581468424135 3.5896032250294 3.4202786218259 4.338480787958 3.8086033172363 4.2155968406185 3.9295830655803 3.5582767652754 3.6378411552341 3.6064820266628 3.4599813318203 3.8366987681096 3.8054894213322 3.7421139845099 3.7058700670216 3.871809577644 3.7146204202538 4.1551528598994 3.4813189660709 3.7413689110528 4.3713148971292 4.3213199832234 3.8421546465406 3.616408063197 3.9972934787235 3.4567554131549 3.8576347978208 3.6328048333407 4.0939510984976 3.6815843302719 3.8463238112557 4.3964086701221 3.7034641419963 4.3781078335833 3.9191693539846 3.820902924702 4.0036370039545 4.1063065416361 4.1330316218128 3.9071809595072 4.1449868700695 3.682188419642 3.689867258956 3.620017074122 3.6357537047004 3.7777543747261 4.3731906689757 4.1327498223089 4.0666902152235 3.7871918200512 4.036569781785 4.0246531696823 4.1963477316033 4.4445659799525 4.2412991564952 3.7988715511558 3.7062654521536 3.7374820116647 3.8817636199173 4.1754661970528 3.5884017484448 3.7978626431547 3.9905389128408 3.7577409522005 3.9347652032303 3.7712321735736 4.1162565458094 4.1634171100032 4.21736133633 4.0665404596191 4.2817303747001 4.4462936103098 4.3221835071787 4.3060071583282 4.2284876904237 4.395694798999 4.4488675760096 4.3798433213243 4.3137305616448 4.0183264701618 3.7568314729196 4.3665831540628 4.0505156118303 3.8580242702528 3.9983686842894 4.1189934962875 4.2932604225767 4.0343176023697 4.1458075184696 4.3414584813865 4.285559322559 4.3635105590855 4.3554744788169 4.212035342615 4.4002887815097 4.3563294873679 
SCALARS 20.00_0.19 double 1
LOOKUP_TABLE default