# vtk DataFile Version 3.0
d-2__ created by libgimli-v1.1.0
ASCII
DATASET UNSTRUCTURED_GRID
POINTS 570 double
14.5	0	0
14.25	0	0
14.386963504964	-0.201738469428	0
22.399299936458	-0.310870122736	0
22.129824335287	-0.229914148082	0
22.126320781198	-0.518791771445	0
8.472303742627	-0.591754876635	0
8.780507935475	-0.76092407121	0
8.82173151259	-0.349253271447	0
18.663262297679	-0.667179415955	0
18.934786529245	-0.453308328646	0
18.636898038907	-0.29588182328	0
4.016904362632	-0.85330676142	0
4.076038737616	-0.331410355179	0
3.713721571226	-0.470767763626	0
1.89953779852	-0.269343012166	0
1.633800503821	-0.203067612233	0
1.644492760828	-0.441295523531	0
4.368408037607	-0.250833874131	0
4.337474161742	-0.544420985055	0
4.67745607622	-0.378433532554	0
1.406172533733	-0.772361039307	0
1.913288206557	-1.218576310882	0
1.90687689783	-0.651895683444	0
2.5	0	0
2.25	0	0
2.347047126858	-0.185539804102	0
1.374000926997	-0.300418771701	0
1.25	0	0
1.114902662369	-0.201591505098	0
1.067401015567	-0.470108640981	0
5.75	0	0
5.699780065382	-0.324747799653	0
5.924584257371	-0.172748359932	0
0.883560935405	-0.231136840652	0
1	0	0
9	0	0
9.117836368049	-0.253904480787	0
2.625577516194	-0.346770599322	0
17.859079774019	-0.943547525024	0
17.535029634209	-1.703182852412	0
18.338018094476	-1.366069799339	0
19.932263871771	-0.826489183604	0
19.881635677668	-0.346204516721	0
19.622287080959	-0.573770479943	0
1.5	0	0
1.75	0	0
23.25	0	0
23	0	0
23.109690227386	-0.220340974338	0
2.75	0	0
2.142562771237	-0.172460438312	0
2	0	0
23.332392704446	-0.202507275941	0
23.5	0	0
19	0	0
18.75	0	0
18.888143078348	-0.195773419804	0
2.90152418742	-0.185685383897	0
7.612175045312	-0.180627982114	0
7.527150943175	-0.401430797998	0
7.881917737402	-0.30462800112	0
25.630635194756	-0.512020961038	0
25.243766894324	-0.80097755811	0
25.758031115142	-0.952821630144	0
3	0	0
28.84859809239	-0.201276387394	0
29	0	0
28.75	0	0
4	0	0
3.835807353334	-0.199536243303	0
3.106904732949	-0.178783649348	0
29.25	0	0
29.092446172194	-0.305987136665	0
13.5	0	0
13.667851890428	-0.185102765244	0
13.75	0	0
3.75	0	0
14.407363653886	-0.441423674912	0
14.125469935998	-0.279652141152	0
4.25	0	0
5.061980176718	-0.407989246181	0
5.335512032876	-0.269401530321	0
5.113979852892	-0.173834924157	0
11.882046000841	-0.812345557852	0
12.478640631525	-1.146569360669	0
12.244190771573	-0.565936619511	0
3.633270844505	-0.195395238442	0
14	0	0
18.378272976509	-0.514977451159	0
5.5	0	0
9.619519097921	-1.16461851757	0
10.030576753886	-1.587265312651	0
9.961661342999	-1.070235523667	0
5.25	0	0
5	0	0
13.157975569138	-0.830425793913	0
13.83833027638	-1.238601004239	0
13.671302359608	-0.710707966059	0
11.325917093147	-0.8366783502	0
11.612143285947	-0.506264798476	0
6	0	0
7	0	0
6.83842404292	-0.188923754932	0
7.11236984822	-0.391746146843	0
6.631875629497	-0.169178192832	0
6.75	0	0
3.21002197083	-0.595267231049	0
3.445510026908	-0.608065324465	0
3.362318141622	-0.306501255187	0
6.120159502895	-0.164221934939	0
4.538525595924	-0.906226152762	0
13.233775457127	-1.737244787017	0
4.5	0	0
16.138065841822	-0.472802517973	0
16.126746690205	-0.221608117926	0
15.859319180798	-0.326402762318	0
26.080401003391	-0.227842452866	0
26.25	0	0
26	0	0
3.019224421113	-0.401469974918	0
8.234901607028	-0.35771789179	0
8.518285578354	-0.242327591839	0
8.328777073389	-0.153008859619	0
7.25	0	0
7.400656881666	-0.195280611572	0
7.5	0	0
5.385509485898	-0.709154879541	0
5.948697127931	-0.745234910621	0
8.75	0	0
8.5	0	0
8.25	0	0
2.214249105773	-0.404278959534	0
2.896561357202	-0.792481120253	0
9.25	0	0
4.920911116561	-0.192028847294	0
9.651670336652	-0.200847798694	0
9.849824537955	-0.19917205686	0
9.75	0	0
10.095049354068	-0.315754204277	0
10	0	0
3.25	0	0
6.738406513564	-0.710129601907	0
7.121614580011	-0.943026074581	0
11.345829942703	-0.314788260019	0
11.25	0	0
11.104427225455	-0.188863495516	0
6.052412255932	-0.372556729023	0
6.373371846535	-0.274163514827	0
10.25	0	0
10.380281579003	-0.241092027437	0
10.5	0	0
10.75	0	0
10.909079077441	-0.189427130481	0
11	0	0
6.25	0	0
6.5	0	0
4.75	0	0
3.5	0	0
10.672815698565	-0.318467932684	0
10.772487906066	-0.787092734739	0
11.020900486567	-0.439266778492	0
8	0	0
7.75	0	0
11.5	0	0
11.619450354737	-0.231443672836	0
11.75	0	0
8.139317726831	-0.163309591658	0
12.25	0	0
12.158949464947	-0.235415698299	0
12.412455385193	-0.275030800337	0
12.929165084344	-0.221336108042	0
12.686337592177	-0.258437422252	0
12.900449535554	-0.462768612232	0
12.5	0	0
9.405755833308	-0.325979504745	0
9.111697192308	-0.594170467817	0
9.457257345083	-0.753685223931	0
18.101369157139	-0.618560521812	0
18.336839281097	-0.861122419318	0
10.385948631267	-0.570640149046	0
9.5	0	0
13.411260455969	-0.342646276848	0
12.643108055516	-0.590179775368	0
13.137744715761	-0.195204172124	0
13	0	0
21.25	0	0
21.358341816502	-0.326561417551	0
21.5	0	0
13.816492716597	-0.40394453634	0
20.25	0	0
20.423452336785	-0.313445603959	0
20.5	0	0
17.789350393153	-0.390447709085	0
17.987794057246	-0.401472255242	0
17.881276545163	-0.206424156589	0
19.564465692234	-0.270867872644	0
19.290725118801	-0.49926248604	0
16.392319441256	-0.29915360323	0
19.443730892406	-0.923508713428	0
20.457987075478	-0.803203365193	0
20.167450719332	-0.505159975143	0
0.103762538371	-0.253013629949	0
0.267057015134	-0.483604909932	0
0.374713194419	-0.2320817565	0
13.25	0	0
17.415572543912	-0.230682214253	0
17.5	0	0
17.25	0	0
18.108153655084	-0.208141099276	0
18.25	0	0
18	0	0
15.75	0	0
15.544586046819	-0.246453491997	0
15.122708481244	-0.193620038745	0
15.25	0	0
15	0	0
19.75	0	0
24.149237782749	-0.319013340846	0
23.842766599446	-0.577371105011	0
24.183995039966	-0.73159476451	0
13.871646321742	-0.17394291424	0
23.862588150518	-0.245417872715	0
16.84024277193	-0.203626765466	0
16.704049384397	-0.435508179396	0
17.112673188265	-0.38804641709	0
24.75	0	0
24.832880292394	-0.290571430318	0
25	0	0
16.40158555625	-0.755912194683	0
16.850299990829	-0.757941865332	0
17.75	0	0
23.567455674596	-0.325197491724	0
16.25	0	0
16	0	0
22.645812614293	-0.197864648876	0
22.75	0	0
22.5	0	0
16.75	0	0
17	0	0
24	0	0
26.914424714815	-0.337869958787	0
26.621963281699	-0.624626679172	0
26.977877660759	-0.778408201088	0
26.622424322919	-0.264588309935	0
19.34462271879	-0.199329831305	0
19.25	0	0
19.118057075065	-0.225686869553	0
19.5	0	0
26.75	0	0
27	0	0
27.5	0	0
27.604422363523	-0.298869962794	0
27.75	0	0
17.650384190064	-0.227839036584	0
18.343198956448	-0.236734208617	0
18.5	0	0
24.25	0	0
20.143897114391	-0.233773711865	0
25.5	0	0
25.25	0	0
25.344389320279	-0.31693710653	0
21.059546193318	-0.24845941382	0
20	0	0
25.842927934822	-0.248287716678	0
25.75	0	0
25.613904645132	-0.216025146631	0
21	0	0
11.763551406169	-1.481607093928	0
30.981104050195	-0.5526690913	0
30.873880294509	-0.217692518774	0
30.706626759758	-0.34945139905	0
20.75	0	0
20.85240828135	-0.178025243856	0
23.75	0	0
20.66289882074	-0.189089155251	0
30.204950808504	-0.791758966623	0
30.715535843381	-1.149995259266	0
30.543724897762	-0.572259098027	0
30	0	0
30.180216671806	-0.343473673313	0
30.25	0	0
23.229584388362	-0.458653998547	0
29.5	0	0
29.623391954444	-0.322069028408	0
29.75	0	0
21.618913855927	-0.233585823579	0
21.75	0	0
29.348490380579	-0.521100538161	0
29.36294710412	-0.230601226356	0
22	0	0
22.25	0	0
28.25	0	0
28	0	0
28.129259193923	-0.314252106503	0
28.44374413871	-0.484576386004	0
28.100199615755	-0.812038297775	0
28.649230646972	-0.871769248311	0
28.618403654115	-0.227691192115	0
28.5	0	0
28.387848605749	-0.205892081491	0
29.054768525933	-0.708603081552	0
29.344906532636	-0.846887322836	0
26.327430876245	-0.35930637997	0
10.349120516034	-1.04150119828	0
10.894920134778	-1.514321070539	0
24.59640839418	-0.191760546865	0
12.75	0	0
24.5	0	0
13.102881121377	-0.411296235356	0
25.099388239946	-0.214879887129	0
25.97986022697	-0.52841375324	0
24.398993403151	-0.196312410538	0
17.860840746535	-0.577367743328	0
17.566481510048	-0.529340016102	0
26.5	0	0
16.637148248735	-0.188015807345	0
18.183918302467	-0.396443618316	0
27.159348252167	-0.205297590358	0
27.357530053515	-0.198815038154	0
27.25	0	0
15.060354649709	-1.112587998155	0
15.51532665618	-1.043792149387	0
15.178150912169	-0.713100616689	0
10.051363365948	-0.719159376333	0
14.661248691948	-0.27865166374	0
14.75	0	0
27.868836823455	-0.217301839861	0
31	0	0
30.75	0	0
-0.020273477909	-1.415389842481	0
1.054972770973	-1.487485199502	0
0.512583677021	-1.0438154777	0
0.75	0	0
2.361419414365	-0.794513604096	0
29.890297721653	-0.2433406165	0
30.473599299501	-0.238575611274	0
30.5	0	0
30.660802173874	-0.161931182737	0
28.783812899585	-0.467926883932	0
4.937022539393	-0.72440615077	0
6.696914540879	-0.380672503721	0
7.434272221796	-0.695675918868	0
15.339606453815	-0.166204802571	0
15.281953315711	-0.388999642276	0
11.893544445085	-0.335972898148	0
12	0	0
9.753796445798	-0.478866225926	0
7.720012958977	-0.638314519759	0
21.871398197179	-0.313006985103	0
21.615176662754	-0.521922347305	0
21.856785525528	-0.665128848631	0
20.792152536902	-0.448319093295	0
21.109577821412	-0.527879642114	0
21.360297691811	-0.734200004244	0
15.547854961707	-0.580173571081	0
24.496861814148	-0.467031445896	0
25.067351422649	-0.463427753535	0
24.81263825963	-0.684738154192	0
22.865620821195	-0.218348593093	0
23.443705587002	-0.773171720633	0
27.277617447467	-0.489224417775	0
27.863714790534	-0.471681393437	0
26.239117668995	-0.863279739365	0
29.896797054636	-0.547765129844	0
29.612773839625	-0.699757135752	0
29.867172666547	-0.87444432816	0
29.610354212963	-1.521444655905	0
29.59548165142	-1.071765512911	0
29.115129171034	-1.220660174798	0
31.345359428525	-0.458952144926	0
31.144859415042	-0.241304201582	0
15.919565295974	-0.746550096707	0
16.063006820294	-1.289595303187	0
16.5	0	0
14.900855313538	-0.178071167744	0
14.161016743654	-0.72559708689	0
19.011498044983	-0.834202892304	0
16.760433281999	-1.263698818643	0
17.280361389946	-0.931704507314	0
-0.627742252535	-0.296285438777	0
-1	0	0
-1	-0.5	0
0.625738545692	-0.228405936136	0
0.5	0	0
3.313957665883	-0.865581185485	0
3.619156095452	-0.800599314657	0
[...]
CELL_DATA 986
SCALARS 160.00_0.37 double 1
LOOKUP_TABLE default
10.602790486395 10.17756135449 8.5540158004653 7.2446202874569 6.4582134389796 10.037894824469 9.3196850354168 6.1568936842193 10.540664579588 9.7592250703432 8.8724843512577 9.758076728851 9.2835584593227 11.79347199166 10.962462491054 9.4831208950493 4.4754014557116 8.2405723552452 11.094546306809 12.030013785053 11.578485963452 10.639207283281 11.557001017116 10.907952978106 11.066040536929 10.789899955515 9.6588944421776 6.6061984953207 10.643971986865 10.300517765834 8.4828272227912 10.162743089687 12.257253498872 10.255477420493 7.5182038924331 10.491621803015 11.824904625079 9.7227353872036 5.8700080205202 7.5098510699674 11.458920049289 6.6516965310779 10.765590847057 4.8554832789316 10.286674259608 9.6457845966416 6.4390303512014 7.3316305022733 9.3714920509778 10.636657203374 8.7040251304316 7.8555039587795 6.4701343444964 9.8346704566702 7.3091957963888 10.304457429372 4.7355489634954 13.901625163053 8.9385319143329 7.957674759335 10.742382754758 9.4850283444723 11.020915114015 11.347795055272 11.998283925738 11.135265056513 7.8096459320298 7.2979852749195 11.759194378015 8.6203511351831 12.021546118526 11.298288145306 11.529943565871 10.850975833796 10.275893782923 7.8091030698132 11.805819448329 10.503249160251 11.45261869976 10.958031564516 9.6691465490261 6.1845153499301 10.03019907473 8.8002509051532 11.805548111806 11.378156791225 8.7313893794824 10.836262297225 10.911301365696 12.349630610042 10.098813338556 11.189714093506 8.2613934029788 10.082904634765 8.963340709597 10.293883970453 11.726983578093 11.316761702885 10.71203188735 10.159612882082 11.38989232592 10.394228681457 9.4318372365487 12.266033586795 7.1541946925027 6.0724490777055 10.023927228552 8.571534470163 8.4297930387615 9.6599270684594 8.2315206565687 11.457972833371 9.6757552919701 9.3594180322251 9.1945662480005 13.914537882593 9.2427177685873 10.88324447353 9.2960463992533 9.2625907888496 7.3032203875554 11.222564344549 8.9885937522341 7.4052803883499 8.7756701931421 9.8739931171561 8.2119454329751 7.6473738717387 10.784918160674 10.043821646494 9.1817318477306 9.9649678112848 11.417763091403 11.041847257982 6.8084705953651 9.3059662547919 8.3658221868844 10.366130282187 12.84985406737 7.979151100125 10.03803010243 8.8532903872107 9.1825817527502 10.626656284784 12.567184437502 11.380896863582 9.6197215767473 6.5120595599101 9.032910926985 7.9472543028432 13.291248145944 14.351905372032 8.4673215060572 13.078507114668 10.174485940655 12.222822578143 11.206087664233 8.1286021011346 9.1368091621668 8.9158243694615 13.588622160987 10.628360378755 8.630304293905 14.224938220021 11.196059244908 8.8713716122899 5.6373516794535 9.017894039273 12.765516310169 12.44369214208 13.719719368317 11.232078067104 5.8778480337448 8.0723141641075 10.604899456905 12.34405338803 10.688314985248 9.8611441537582 10.437277110838 12.30929103452 11.734449255836 10.375903025844 11.774492992248 6.768692575932 6.697558902455 11.728516181381 10.326460126157 11.462047921964 10.467281492479 7.0538920391218 8.3872977842496 5.8269949286046 10.871768600741 5.7568846040505 10.952981458759 10.690650820825 5.7626499191132 12.411148224845 10.451616885086 9.3846760397517 11.945745618673 9.7275265274326 8.3521925089498 9.5848337383215 10.845341283696 7.2977353114876 10.275143059849 10.072419943546 10.235171903536 11.100285903675 8.7911177471658 10.352606929595 9.9816320811457 7.8375243033612 8.7507037187679 8.9401087264274 5.2781807908765 9.076490930826 5.7883672465686 10.097658443041 10.237761933324 10.795599272154 11.557852829143 13.510216436715 10.612847221054 10.492384181825 10.938076815741 11.746387059084 8.9151844693259 10.980124405658 11.401347709498 5.2769405225824 12.436496444883 12.061844670609 9.413068476921 10.380892522778 9.9239508872269 7.0210267086365 9.7589394752528 8.9269360396131 8.1432453474045 7.5120995303285 10.974052587974 9.8586610199421 9.9639086807241 11.678108086278 7.7305218373024 10.403141259717 9.3018949124593 8.823198671364 7.3591099672915 8.5249934519995 6.9118379502308 9.6267753572717 11.184515050967 7.3229938723224 10.513673726684 9.9149216193509 11.821698034872 7.4997204791445 9.5388051747588 8.9030771710733 11.169592103063 10.090324036162 7.7411545846769 11.866537778693 8.0003056621552 9.9069406645806 7.9061662462396 7.7489145634297 9.3555895104014 10.415293061908 9.4057235375593 9.2424593583018 10.35628950382 10.619831192381 7.9272097560947 9.1251805237666 10.109308317651 9.4761886037312 7.9329927283781 10.464295185872 11.116808847389 10.418614276937 6.7977120401366 10.70852954583 9.6934242842721 11.440693502046 11.650380759576 9.8460604351303 8.5332995248461 8.2678617995416 8.0063852104743 11.544130584692 9.3198117029737 13.084317753552 8.7294842473592 11.205265423833 14.331094136599 9.8637858398029 6.8071501339235 10.645055049849 13.113549127073 11.14657533661 6.5028323279352 8.346934743689 9.9828613371108 10.060127235274 9.2814696272836 10.817665455442 10.355028871419 10.691349417305 9.1471590261217 8.9982922554212 10.20745100868 8.5364832966684 10.489509147017 8.0437828360931 8.0812906770695 10.118090854004 9.3940801132262 11.149688519121 9.0046322247788 8.1810118032814 9.181106830232 9.7115911952108 11.992831708639 7.3874610471675 6.3067969579977 4.5924589690996 8.8109611740382 7.5852804741036 9.532015928785 10.312909887971 8.5237194512983 9.6998746350873 9.5321545393882 10.183366251669 8.3877445519323 9.7702683775552 5.2000126066902 5.6856276430277 11.804074001547 10.646164383004 10.197558621677 9.384239402876 11.113515328418 12.893882554147 10.120079818679 7.2825627175986 9.8051070084825 6.3570226646732 8.9693283975039 5.7719114613538 7.1376405296768 6.2990397947573 6.1355936748875 8.0083349550652 7.2614778648665 9.3647702582592 7.8010742970353 5.4246744750036 7.62864482134 8.9328208580237 10.542714049825 7.1063325325677 6.1533745599438 5.512294703621 7.1351180752233 10.204309752952 9.9916748777565 8.0891646031539 7.0496712590443 6.1630505858406 7.7049340339868 9.2760054810755 7.3910345102271 10.369258064964 10.15601447705 6.2432532956156 5.2594061813004 7.2850971127613 9.0144232251379 9.8006386815327 12.80099866176 12.653256234203 8.6818661407281 9.9603230405445 6.9361907387048 11.051828757116 8.6250956773408 7.9856627115802 5.8708918771348 9.4339982227817 7.8232971241017 9.6319310979467 7.1487116151301 8.6878351373452 8.8905467319779 9.6922122310669 11.316700437325 12.437045602783 10.441815384695 7.6867673665763 6.0031326338466 13.020539153012 6.1151929291135 10.190969819075 11.331616576078 7.5612709844324 11.097056356913 8.4827732296657 8.1566327669539 7.9367316846769 10.060019530294 8.8245389876296 6.8387673710056 7.3887984649067 5.6509124210896 7.1143443441994 6.3026081516195 10.389433723051 9.5010863823418 7.0925168947292 7.754658830806 8.5506121899409 6.5094537465143 7.0030631818855 8.5775537065376 7.1320650141308 7.5104030346025 11.502070744461 10.099972011804 9.3258403367355 8.6510108355624 10.236680492715 5.096909182284 8.089286431742 4.8365550066918 7.7706843042522 5.3996530343516 7.8161480076267 10.166636844825 9.4755162011138 5.3886803003329 8.7658425640088 4.5499449540719 10.033136748139 6.7644580980383 7.4980208534785 10.174691348207 10.202549030018 10.823488009491 7.0341965235738 5.4594678493241 4.2908567952859 7.0923615595589 10.180126036963 8.1637122346144 8.740915583458 7.7369441508952 9.1159738983902 8.5423592256211 7.7781110556843 7.4295802517723 4.7865695230925 5.9599624759181 7.1442617584995 5.5123962315634 4.9810252963662 5.7109530232267 9.6546797100522 6.7972683434169 4.8663271554419 4.282431301472 9.7822249188706 7.7574682516047 7.6317606480198 6.8058724297022 5.5201263752497 6.6406614422437 5.4227667891744 5.529974791221 10.042425591801 8.1051765843098 7.2800055784593 7.9949873181554 10.396686731421 7.4533095495827 8.0884093658566 4.6515350626605 8.844360516136 9.9083902162359 10.260903176299 6.876105690545 5.8013079772996 4.6058790638404 3.9761625701227 6.4652741878102 8.649595783282 6.4871616997166 6.6436334623031 5.2625173349507 6.2629275260331 8.3495990048668 11.293763224564 5.3469657526212 9.488004584196 11.509883210673 4.1262537204914 8.5548724076563 12.761499795353 9.8736501542211 5.2173544601482 8.3738054598904 8.1501316709936 6.3302970179504 5.7892629811023 4.9107553088694 10.279052497886 9.9591376541986 4.9459186719425 8.1710266539261 7.6920586529918 5.8554992717335 5.543537027297 4.6425243598052 10.160046649186 8.9489507202905 8.8189665809954 6.6062271215813 8.632749961204 8.2331088350661 8.9993089226003 6.5140872114714 8.4314914736038 9.6937374376028 8.9493524235696 4.8515723857129 3.7917464351595 7.6901400602002 5.6222561509896 8.4994344875438 8.721888469442 5.1156267848412 8.8856083580385 3.7747500547327 5.7673148147005 3.7122290062429 4.2454364275798 8.4110439794148 5.3985411184052 8.1140640616869 5.4776011017035 8.5829610801771 7.9443747717515 6.1727674697168 8.1312312237938 5.1403663899434 5.9028889064398 6.3824202750424 5.8639150843476 7.9370838125147 5.6280918650726 6.8379801593039 8.9413752632127 5.2358087703153 4.6619538157855 7.0730146596605 6.4974342101747 10.499856496371 5.7200868855503 8.6717044083768 6.6359264434523 9.5376608261566 9.2363019958742 5.3958388909761 3.8441784877513 8.137192703376 6.9218612518735 6.3111919229507 6.5916427919217 11.42171271156 7.8800171376643 5.1203668486164 7.4899728015989 10.030901778805 8.1159238530008 8.6292446199782 7.4424631068296 8.3025299319696 6.9809163056392 3.9611133511572 7.4729371648048 4.2280014541569 7.8075600253568 7.4880327361966 7.8456875258498 5.9912888374441 7.013950535077 7.6509375195447 7.3279259076558 7.1457190732329 5.8245344879586 4.5831745363416 3.8127592491776 4.7919128112953 6.646265273054 8.9457222270998 6.9096130075164 6.0735503398656 6.3891113367127 5.1587091945357 12.099776096604 4.9201237492535 11.170224288633 8.1031530783713 3.888754861884 8.1396445954845 8.5522147859658 6.7418935635892 8.3541707613949 7.0234212421931 5.5269456709169 5.6672390310138 5.1937826371745 7.0872996628514 7.5364321146054 3.8923916108367 4.7729994145065 4.1196764323254 5.2409930418849 4.6243213574186 8.3888041692517 5.2135792470079 8.2722403521996 4.5720266241883 4.84072625941 4.8343440421474 7.4793762845716 4.1998276996462 4.3182429663211 6.1634306218804 4.710235914999 3.8239080057866 5.5337804437831 9.5808341706941 8.895310051174 6.9058669230648 4.273107382859 4.7661845097578 4.4437326917371 8.1399922653857 6.9739218876139 7.7307859268456 6.5673628997285 9.7067256938338 8.8361705732345 5.0326524027098 9.0426425583912 5.2761874815651 8.7388990415697 5.6163188571956 8.0616097899185 9.280481184331 6.7835946303095 8.2299478816424 7.6816385306573 8.1955548437825 8.8576026146684 9.1733596274262 7.2632049075771 8.3893595212961 4.0299329367721 5.2169529614249 8.3732903509839 4.3660041191008 9.6253186549716 6.7709417734605 5.8687023989758 5.9625404378589 5.9748981798413 4.9906093266393 4.7112126332818 4.6756534105405 4.5868274570335 4.5656340070957 9.431486096137 10.398147381432 10.534018447795 10.089330025052 4.4378847106266 3.7261108813723 5.0099268898683 5.3294044383491 5.7116478094963 5.2474158795197 5.4844530131428 4.9492922154829 5.7887696453897 5.9525100334043 5.9335080689666 5.6990702458862 5.9772814295449 6.3781955060647 5.3907903235693 5.0591581190971 7.9899577690954 7.7884492819678 4.5117895724521 3.5339623094064 3.5561480953456 4.0712019634346 3.9041202757558 6.4466646049619 5.413164554939 6.5586412176188 6.1156719376538 10.701658900814 10.711308769994 3.8484298747462 4.4132878047249 7.4543458180452 5.1962851750031 3.6688908522385 3.8207642155192 4.8793118362693 6.796178323344 9.744805826742 6.2005052024908 7.0920463862737 4.8330347609815 5.088839236664 9.9829378254265 4.7355231223646 7.0240196848704 11.346739463572 4.7411693862308 4.0364153978881 7.7204330300052 8.0358802952145 4.970269464782 4.3766144257082 4.3536851572775 6.0353107413289 3.9245724956583 4.8277701201134 3.6096879795238 3.5317438450746 3.9707960681655 9.0156333631935 4.3680451878054 5.3030773044973 4.3793286550995 5.0455099935128 4.1882170955508 5.0686862903696 8.4497634781455 3.5839071099512 5.9394359064872 3.5448301897552 3.9249027613517 4.8797081375389 4.0702832145063 3.798961704997 3.6860274858772 4.2796787462752 4.1555146746959 4.5631788559854 3.8334238189263 7.2203445817938 4.7200724801273 3.7043497047242 4.0640689743503 4.5796398966883 4.5578179578375 6.8187628836228 6.8018365145864 7.6461144778591 7.2829113430505 6.2456890871059 6.8279577120865 5.63186212484 6.1838392286347 7.2216449184497 6.7953989108243 5.3527084903171 5.8555984429391 5.7128326993302 7.3120639765332 6.4993621935878 3.517729706604 4.2320763433892 5.3214395363445 4.3178229259535 4.1796965739863 3.8360890488698 3.9700624804623 3.5874983992781 4.1172632065485 3.8669428099268 4.0704063859338 4.4389580954333 10.492126396387 4.1491433456767 4.934057213321 4.7620028061714 9.7093046632957 7.2749738707046 3.8024357542749 3.7469559522862 3.4853912590076 4.293055343143 4.6906884750102 11.302039617033 3.7042982033145 3.990053567985 4.1881419927773 3.5316513574634 4.5004034524992 5.1902602682299 4.7873164901301 4.6154456213135 3.8225556121657 4.6138581530461 3.9334323216554 3.5730475477904 4.3452963440164 3.5245433643715 3.6785712096875 4.3335612023832 4.2388132222876 3.4605750986159 3.6502508261811 3.4115417789847 3.5403316050147 3.4479040850257 3.4549256077989 3.6311861824282 4.2369969908655 4.2027632172293 5.1364386254228 5.239742482714 3.7981246984638 3.5790917284623 3.4996179805427 4.1282031510297 3.5857996623489 3.5549616733317 3.6272159405061 3.6215677155249 3.564884384045 3.672192080015 3.5011657045317 4.1577557439438 3.3496594358623 3.5592479175967 4.0946437141909 3.9641003149453 3.4972909946536 3.4933931244884 3.606456710532 3.6638525217411 3.435221367173 3.4184178296285 3.4954011909156 3.5323724181622 3.4695317215203 3.5629952316191 3.8637293644236 3.6329986934675 3.7100986183485 3.4917272713185 4.1622186127132 3.4890300696631 3.6085694327623 3.4146312925131 3.4710443044348 3.5528079286325 3.4711122499885 3.6449151186931 3.5591551226105 3.5493073915788 4.1316065956177 3.5471808844906 3.8978639282986 3.4267036649162 3.5176680630756 3.6468572330019 4.2396370935822 3.6484116994427 3.5883858860382 3.3945124254251 4.2445379286393 3.8030906592045 4.294082013623 3.8191033638135 3.5110171052075 3.6666748526769 3.6251193478011 3.4868763995125 3.8002738559551 3.8779891948817 3.6996788118007 3.7553744189103 3.7780013120293 3.7057073578238 4.0163430292724 3.4684477609637 3.7925745069601 4.4469215213324 4.1592590322532 3.9007655437115 3.6346353778574 4.0159450918286 3.4358211318696 3.8237342725709 3.6578769306932 4.1140713384105 3.7381393138726 3.9152998390774 4.2313414426739 3.7256340291872 4.2092716117801 3.8521953227823 3.8406909289496 3.9933743825458 4.0884368944018 4.1783950737412 3.9758217957007 4.2290867093572 3.7471119874212 3.7390008523247 3.6087869947584 3.6403035244837 3.7815396336513 4.2089644798927 4.1323179319777 4.0468201490543 3.8123707939512 4.0898026102972 4.0912752910891 4.2366196793105 4.5338559758304 4.2966870796201 3.780582723149 3.7681272736039 3.7061109112192 3.8726159900897 4.0351153633894 3.5531634215341 3.8607529082456 4.0724568484239 3.6964108281761 3.854904681361 3.6990442652075 4.0079136737659 4.0388744416956 4.1197143355773 3.9927661633837 4.2776975463632 4.2868893056208 4.1858746073012 4.1613331825555 4.1127054248343 4.2542938613942 4.2805381731622 4.2579041175291 4.2182611981453 4.1043766592266 3.8249078002964 4.4549755610371 4.1270152829194 3.9230871819807 4.0418500770326 4.1664249873991 4.2319795026274 3.9812232187532 4.1012254499182 4.3083480944372 4.3166039468913 4.4523197657501 4.4047437635829 4.3013152099331 4.4797037085494 4.4267303699745 
SCALARS 20.00_0.17 double 1
LOOKUP_TABLE default