# vtk DataFile Version 3.0
d-2__ created by libgimli-v1.1.0
ASCII
DATASET UNSTRUCTURED_GRID
POINTS 570 double
14.5	0	0
14.25	0	0
14.386963504964	-0.201738469428	0
22.399299936458	-0.310870122736	0
22.129824335287	-0.229914148082	0
22.126320781198	-0.518791771445	0
8.472303742627	-0.591754876635	0
8.780507935475	-0.76092407121	0
8.82173151259	-0.349253271447	0
18.663262297679	-0.667179415955	0
18.934786529245	-0.453308328646	0
18.636898038907	-0.29588182328	0
4.016904362632	-0.85330676142	0
4.076038737616	-0.331410355179	0
3.713721571226	-0.470767763626	0
1.89953779852	-0.269343012166	0
1.633800503821	-0.203067612233	0
1.644492760828	-0.441295523531	0
4.368408037607	-0.250833874131	0
4.337474161742	-0.544420985055	0
4.67745607622	-0.378433532554	0
1.406172533733	-0.772361039307	0
1.913288206557	-1.218576310882	0
1.90687689783	-0.651895683444	0
2.5	0	0
2.25	0	0
2.347047126858	-0.185539804102	0
1.374000926997	-0.300418771701	0
1.25	0	0
1.114902662369	-0.201591505098	0
1.067401015567	-0.470108640981	0
5.75	0	0
5.699780065382	-0.324747799653	0
5.924584257371	-0.172748359932	0
0.883560935405	-0.231136840652	0
1	0	0
9	0	0
9.117836368049	-0.253904480787	0
2.625577516194	-0.346770599322	0
17.859079774019	-0.943547525024	0
17.535029634209	-1.703182852412	0
18.338018094476	-1.366069799339	0
19.932263871771	-0.826489183604	0
19.881635677668	-0.346204516721	0
19.622287080959	-0.573770479943	0
1.5	0	0
1.75	0	0
23.25	0	0
23	0	0
23.109690227386	-0.220340974338	0
2.75	0	0
2.142562771237	-0.172460438312	0
2	0	0
23.332392704446	-0.202507275941	0
23.5	0	0
19	0	0
18.75	0	0
18.888143078348	-0.195773419804	0
2.90152418742	-0.185685383897	0
7.612175045312	-0.180627982114	0
7.527150943175	-0.401430797998	0
7.881917737402	-0.30462800112	0
25.630635194756	-0.512020961038	0
25.243766894324	-0.80097755811	0
25.758031115142	-0.952821630144	0
3	0	0
28.84859809239	-0.201276387394	0
29	0	0
28.75	0	0
4	0	0
3.835807353334	-0.199536243303	0
3.106904732949	-0.178783649348	0
29.25	0	0
29.092446172194	-0.305987136665	0
13.5	0	0
13.667851890428	-0.185102765244	0
13.75	0	0
3.75	0	0
14.407363653886	-0.441423674912	0
14.125469935998	-0.279652141152	0
4.25	0	0
5.061980176718	-0.407989246181	0
5.335512032876	-0.269401530321	0
5.113979852892	-0.173834924157	0
11.882046000841	-0.812345557852	0
12.478640631525	-1.146569360669	0
12.244190771573	-0.565936619511	0
3.633270844505	-0.195395238442	0
14	0	0
18.378272976509	-0.514977451159	0
5.5	0	0
9.619519097921	-1.16461851757	0
10.030576753886	-1.587265312651	0
9.961661342999	-1.070235523667	0
5.25	0	0
5	0	0
13.157975569138	-0.830425793913	0
13.83833027638	-1.238601004239	0
13.671302359608	-0.710707966059	0
11.325917093147	-0.8366783502	0
11.612143285947	-0.506264798476	0
6	0	0
7	0	0
6.83842404292	-0.188923754932	0
7.11236984822	-0.391746146843	0
6.631875629497	-0.169178192832	0
6.75	0	0
3.21002197083	-0.595267231049	0
3.445510026908	-0.608065324465	0
3.362318141622	-0.306501255187	0
6.120159502895	-0.164221934939	0
4.538525595924	-0.906226152762	0
13.233775457127	-1.737244787017	0
4.5	0	0
16.138065841822	-0.472802517973	0
16.126746690205	-0.221608117926	0
15.859319180798	-0.326402762318	0
26.080401003391	-0.227842452866	0
26.25	0	0
26	0	0
3.019224421113	-0.401469974918	0
8.234901607028	-0.35771789179	0
8.518285578354	-0.242327591839	0
8.328777073389	-0.153008859619	0
7.25	0	0
7.400656881666	-0.195280611572	0
7.5	0	0
5.385509485898	-0.709154879541	0
5.948697127931	-0.745234910621	0
8.75	0	0
8.5	0	0
8.25	0	0
2.214249105773	-0.404278959534	0
2.896561357202	-0.792481120253	0
9.25	0	0
4.920911116561	-0.192028847294	0
9.651670336652	-0.200847798694	0
9.849824537955	-0.19917205686	0
9.75	0	0
10.095049354068	-0.315754204277	0
10	0	0
3.25	0	0
6.738406513564	-0.710129601907	0
7.121614580011	-0.943026074581	0
11.345829942703	-0.314788260019	0
11.25	0	0
11.104427225455	-0.188863495516	0
6.052412255932	-0.372556729023	0
6.373371846535	-0.274163514827	0
10.25	0	0
10.380281579003	-0.241092027437	0
10.5	0	0
10.75	0	0
10.909079077441	-0.189427130481	0
11	0	0
6.25	0	0
6.5	0	0
4.75	0	0
3.5	0	0
10.672815698565	-0.318467932684	0
10.772487906066	-0.787092734739	0
11.020900486567	-0.439266778492	0
8	0	0
7.75	0	0
11.5	0	0
11.619450354737	-0.231443672836	0
11.75	0	0
8.139317726831	-0.163309591658	0
12.25	0	0
12.158949464947	-0.235415698299	0
12.412455385193	-0.275030800337	0
12.929165084344	-0.221336108042	0
12.686337592177	-0.258437422252	0
12.900449535554	-0.462768612232	0
12.5	0	0
9.405755833308	-0.325979504745	0
9.111697192308	-0.594170467817	0
9.457257345083	-0.753685223931	0
18.101369157139	-0.618560521812	0
18.336839281097	-0.861122419318	0
10.385948631267	-0.570640149046	0
9.5	0	0
13.411260455969	-0.342646276848	0
12.643108055516	-0.590179775368	0
13.137744715761	-0.195204172124	0
13	0	0
21.25	0	0
21.358341816502	-0.326561417551	0
21.5	0	0
13.816492716597	-0.40394453634	0
20.25	0	0
20.423452336785	-0.313445603959	0
20.5	0	0
17.789350393153	-0.390447709085	0
17.987794057246	-0.401472255242	0
17.881276545163	-0.206424156589	0
19.564465692234	-0.270867872644	0
19.290725118801	-0.49926248604	0
16.392319441256	-0.29915360323	0
19.443730892406	-0.923508713428	0
20.457987075478	-0.803203365193	0
20.167450719332	-0.505159975143	0
0.103762538371	-0.253013629949	0
0.267057015134	-0.483604909932	0
0.374713194419	-0.2320817565	0
13.25	0	0
17.415572543912	-0.230682214253	0
17.5	0	0
17.25	0	0
18.108153655084	-0.208141099276	0
18.25	0	0
18	0	0
15.75	0	0
15.544586046819	-0.246453491997	0
15.122708481244	-0.193620038745	0
15.25	0	0
15	0	0
19.75	0	0
24.149237782749	-0.319013340846	0
23.842766599446	-0.577371105011	0
24.183995039967	-0.73159476451	0
13.871646321742	-0.17394291424	0
23.862588150518	-0.245417872715	0
16.84024277193	-0.203626765466	0
16.704049384397	-0.435508179396	0
17.112673188265	-0.38804641709	0
24.75	0	0
24.832880292394	-0.290571430318	0
25	0	0
16.40158555625	-0.755912194683	0
16.850299990829	-0.757941865332	0
17.75	0	0
23.567455674596	-0.325197491724	0
16.25	0	0
16	0	0
22.645812614293	-0.197864648876	0
22.75	0	0
22.5	0	0
16.75	0	0
17	0	0
24	0	0
26.914424714815	-0.337869958787	0
26.621963281699	-0.624626679172	0
26.977877660759	-0.778408201088	0
26.622424322919	-0.264588309935	0
19.34462271879	-0.199329831305	0
19.25	0	0
19.118057075065	-0.225686869553	0
19.5	0	0
26.75	0	0
27	0	0
27.5	0	0
27.604422363523	-0.298869962794	0
27.75	0	0
17.650384190064	-0.227839036584	0
18.343198956448	-0.236734208617	0
18.5	0	0
24.25	0	0
20.143897114391	-0.233773711865	0
25.5	0	0
25.25	0	0
25.344389320279	-0.31693710653	0
21.059546193318	-0.24845941382	0
20	0	0
25.842927934822	-0.248287716678	0
25.75	0	0
25.613904645132	-0.216025146631	0
21	0	0
11.763551406169	-1.481607093928	0
30.981104050195	-0.5526690913	0
30.873880294509	-0.217692518774	0
30.706626759758	-0.34945139905	0
20.75	0	0
20.85240828135	-0.178025243856	0
23.75	0	0
20.66289882074	-0.189089155251	0
30.204950808504	-0.791758966623	0
30.715535843381	-1.149995259266	0
30.543724897762	-0.572259098027	0
30	0	0
30.180216671806	-0.343473673313	0
30.25	0	0
23.229584388362	-0.458653998547	0
29.5	0	0
29.623391954444	-0.322069028408	0
29.75	0	0
21.618913855927	-0.233585823579	0
21.75	0	0
29.348490380579	-0.521100538161	0
29.36294710412	-0.230601226356	0
22	0	0
22.25	0	0
28.25	0	0
28	0	0
28.129259193923	-0.314252106503	0
28.44374413871	-0.484576386004	0
28.100199615755	-0.812038297775	0
28.649230646972	-0.871769248311	0
28.618403654115	-0.227691192115	0
28.5	0	0
28.387848605749	-0.205892081491	0
29.054768525933	-0.708603081552	0
29.344906532636	-0.846887322836	0
26.327430876245	-0.35930637997	0
10.349120516034	-1.04150119828	0
10.894920134778	-1.514321070539	0
24.59640839418	-0.191760546865	0
12.75	0	0
24.5	0	0
13.102881121377	-0.411296235356	0
25.099388239946	-0.214879887129	0
25.97986022697	-0.52841375324	0
24.398993403151	-0.196312410538	0
17.860840746535	-0.577367743328	0
17.566481510048	-0.529340016102	0
26.5	0	0
16.637148248735	-0.188015807345	0
18.183918302467	-0.396443618316	0
27.159348252167	-0.205297590358	0
27.357530053515	-0.198815038154	0
27.25	0	0
15.060354649709	-1.112587998155	0
15.51532665618	-1.043792149387	0
15.178150912169	-0.713100616689	0
10.051363365948	-0.719159376333	0
14.661248691948	-0.27865166374	0
14.75	0	0
27.868836823455	-0.217301839861	0
31	0	0
30.75	0	0
-0.020273477909	-1.415389842481	0
1.054972770973	-1.487485199502	0
0.512583677021	-1.0438154777	0
0.75	0	0
2.361419414365	-0.794513604096	0
29.890297721653	-0.2433406165	0
30.473599299501	-0.238575611274	0
30.5	0	0
30.660802173874	-0.161931182737	0
28.783812899585	-0.467926883932	0
4.937022539393	-0.72440615077	0
6.696914540879	-0.380672503721	0
7.434272221796	-0.695675918868	0
15.339606453815	-0.166204802571	0
15.281953315711	-0.388999642276	0
11.893544445085	-0.335972898148	0
12	0	0
9.753796445798	-0.478866225926	0
7.720012958977	-0.638314519759	0
21.871398197179	-0.313006985103	0
21.615176662754	-0.521922347305	0
21.856785525528	-0.665128848631	0
20.792152536902	-0.448319093295	0
21.109577821412	-0.527879642114	0
21.360297691811	-0.734200004244	0
15.547854961707	-0.580173571081	0
24.496861814148	-0.467031445896	0
25.067351422649	-0.463427753535	0
24.81263825963	-0.684738154192	0
22.865620821195	-0.218348593093	0
23.443705587002	-0.773171720633	0
27.277617447467	-0.489224417775	0
27.863714790534	-0.471681393437	0
26.239117668995	-0.863279739365	0
29.896797054636	-0.547765129844	0
29.612773839625	-0.699757135752	0
29.867172666547	-0.87444432816	0
29.610354212963	-1.521444655905	0
29.59548165142	-1.071765512911	0
29.115129171034	-1.220660174798	0
31.345359428525	-0.458952144926	0
31.144859415042	-0.241304201582	0
15.919565295974	-0.746550096707	0
16.063006820294	-1.289595303187	0
16.5	0	0
14.900855313538	-0.178071167744	0
14.161016743654	-0.72559708689	0
19.011498044983	-0.834202892304	0
16.760433281999	-1.263698818643	0
17.280361389946	-0.931704507314	0
-0.627742252535	-0.296285438777	0
-1	0	0
-1	-0.5	0
0.625738545692	-0.228405936136	0
0.5	0	0
3.313957665883	-0.865581185485	0
3.619156095452	-0.800599314657	0
[...]
CELL_DATA 986
SCALARS 100.00_0.19 double 1
LOOKUP_TABLE default
11.743357225181 9.7254102861511 9.103159941882 8.639251679779 7.5746697999521 9.3706992062429 9.0142317193197 6.4661098559231 11.300030968749 10.415980510635 9.1659006791003 10.673182451734 9.5319292988422 10.703173395076 10.851343916168 10.668989574156 5.4377646443783 8.6194223555901 9.8573705608064 11.656519749898 10.002540061447 10.843209687676 11.673192528491 10.025894191728 9.6700588890415 9.7572403952789 10.805090998638 6.7568212243977 9.7294536992647 9.8585833725895 9.077339970703 9.8492749869086 10.883997086028 11.703087301706 8.3471110047596 11.113330915339 10.624311291444 9.8049225827305 7.0183006731229 8.4481450146314 12.115333276456 8.5264936415553 10.691728207434 5.7744669660238 10.248758401424 9.9003148523994 7.3613087396521 8.1159104612234 10.613669353316 11.035901954226 9.8665904968323 9.096272074497 7.5548780591879 10.518572682236 7.773005828038 11.032203013772 5.6618107190032 11.348180862458 10.323114541848 9.345233106893 10.675602339739 9.2638707452296 10.920748555731 10.849436088227 11.314039738518 10.94776737777 8.4406555986326 8.1164036356057 11.103286220694 9.0885423933976 11.486688233469 10.690490610029 10.86574676876 11.401245673959 10.473009852989 8.1836923171414 10.323903160041 10.126528956982 11.103976051209 10.863904720711 9.8076001862251 7.5825458673807 10.949460412728 9.7893419040393 12.375667338507 12.69043061868 10.269028982803 11.695048431346 10.707335933728 10.933002678518 9.4047744830583 10.768039581676 9.1924418542119 10.526927653453 9.8151724380767 11.968028694516 12.760754463208 11.769257384127 10.57461796609 10.649209033786 10.526775367309 11.919799667953 9.6370371825931 11.182193407793 8.5402455946767 7.8980132446176 10.485528345604 9.1921699350306 9.0999713947577 9.6911887349412 9.1083598785767 10.615718744297 9.7969651866917 9.5321151582783 10.004730984019 13.372717218252 9.707143447794 11.728199030495 9.3670646409263 10.428864031156 8.010344326576 11.945654741804 9.1737939886195 8.6230727802848 9.4361126674565 11.060657289177 9.0335764408252 8.5125878904869 11.557463616775 10.953231244866 8.8070738532931 11.019017580255 11.052281371803 10.741730143417 8.0806457346314 11.314269469756 9.13509215036 10.8124410785 9.7313019607026 8.4860507193857 10.746048385022 9.1520092790574 11.473409407019 10.053498972679 13.470760722113 11.830614546656 9.8833739524722 7.4657887964926 9.4031594782639 8.2169308899939 11.142451930286 11.484693685899 8.95095243066 11.215954518821 9.6576459795549 10.649950193016 10.548402735175 9.4294809640293 8.7403232014339 8.5793370120281 12.532669088975 11.201784824247 9.7537018067808 12.925754116345 10.211155453508 10.01571595338 6.4002526794409 8.2999603937055 11.500538242106 10.148621570067 11.667647108016 11.070120839399 7.3045044357834 8.1924467979695 10.353613034757 9.4273769784381 11.415557424064 10.650614552936 9.1948118172657 9.9134087082469 11.583636953504 12.314130722299 10.837362104603 7.1221809433949 7.4365617598834 11.677775175053 10.683023104164 11.152308094952 9.3650188605425 7.4636858359325 8.4003768618952 6.5151179357898 10.070640644785 7.343627883863 9.7909131728199 10.564368044923 7.0052177644716 10.490296316055 10.140318831494 9.7501469945597 10.502734851364 9.2982101372663 9.1468563914275 9.5856498803763 10.416635863987 8.1520917933696 10.503728356908 9.7902646139316 11.36192625598 10.224987122784 10.224638155321 11.073546731199 8.3462385665091 9.0601390625583 8.8083379380951 8.7115195961956 7.0503871031609 9.2724401044379 6.7737005777515 9.4767480350424 10.04487795138 11.450844119449 10.30504247102 11.759452496629 9.092049720987 10.943474646571 10.188820412626 8.8304168284611 8.6578856729986 10.10582894074 8.6919454162614 5.7987495756593 10.710246779998 10.459767952844 8.9654133812929 9.770477963764 9.2375287389932 7.5302735524271 9.9587049890192 8.9121402892519 8.3499784682414 8.3980263749524 10.786951989283 10.006062809082 9.5511348330168 10.161914764636 8.6391883855101 9.07539179001 9.1422140437244 8.3198131227311 8.3720193907649 9.2788481436989 7.668045416782 9.4400773210944 10.154801015014 8.4055939875365 10.928312419708 10.049379360152 10.925493729474 8.077463957125 9.4998548717148 9.4286909028264 10.20349586971 9.8831667338443 9.1710548318734 11.231070124852 9.1079945759809 11.509189770532 8.9391349281159 9.1216346952922 9.6267537537857 10.368979551663 10.16670095309 10.248709989353 10.447183618453 10.774024604029 10.139909143697 9.8322459728949 10.664682225649 11.159008155721 8.7277494089078 11.588732866135 11.81017149664 11.558621622221 7.6934052783228 11.982847295859 10.338633149667 11.729371635717 11.768101918556 10.363747971525 9.6943861555387 8.9077010152223 8.6330509451324 11.370724238444 9.7725623081103 10.556516663792 9.7924493043305 10.710843268883 10.967267899885 10.653681624731 8.668228705419 11.080057355522 11.732744267348 10.462176359657 8.9519753106984 8.5462482015156 9.8704760770884 11.172313341862 9.2810232873764 10.146795381411 9.6644419544787 11.013154450226 8.7183013715713 9.3577657464608 9.8837565221013 8.5821801747997 10.306289202867 8.4195528416713 8.8477401477479 9.7237552473325 8.7165628341896 9.9143983050337 8.8671465979877 8.8737792025367 9.081665088788 8.9446089034558 10.65549202749 7.5826839029876 7.5162461128565 5.7239224749991 7.4075848562855 8.2216408375516 8.804034367421 9.5170064307783 8.9161718375635 9.3927411831999 7.947262585827 12.075008937915 8.3723618993334 11.468311493431 6.6630862633999 7.8468431838018 11.522705546823 11.130556156107 11.26946629634 10.33297515196 10.447881750572 10.346683934767 9.6652200987817 9.0726101161906 9.8659031043232 7.4017888375661 9.4536477772172 7.0106902242203 9.6596926329497 6.7677050421349 6.533580907014 8.1367215491783 8.4590232405479 9.9962329520542 8.8574896098051 6.5681197914608 7.9043189211205 9.2585672821054 9.7882791570845 7.8287480694946 6.9549043681724 6.6728239074381 8.064661509558 10.968164386752 11.518870013905 9.4058909700097 8.4029975332635 7.494767182746 8.8905833405496 10.033085824533 8.4685469069372 11.130965155091 10.382526055786 7.6806956675637 6.4040159958939 8.9671741107664 9.8470894339119 10.477210559412 11.25124879836 10.655632870935 9.2608474923499 10.942048372024 7.7166752201154 12.105609673171 9.3005421496085 8.8476178044757 7.7601454548356 9.9640804021331 8.7629052882047 10.58534481576 8.7117324785307 9.4661579509378 10.077183107843 9.5913989833124 10.866557959477 10.798494220797 9.6857038781616 9.42932494508 7.2119976717852 11.156705772742 7.4478078481199 9.7349835125147 10.712080518074 8.7056926960623 11.931589426924 9.5332889473448 8.7984758001527 8.3823407713728 9.784868102294 8.777559886799 8.1105184355813 8.0480549600069 6.870345084206 8.7293833729786 6.5853609930907 10.066848377056 9.3832956775804 7.975588096897 8.0316138881748 9.1403862940756 7.7298844896411 7.3133652524338 8.3609988940392 7.2198560633997 7.7960139481032 10.668260665052 9.47577814028 9.1603632685012 7.7224080761421 8.1266315654565 6.4965938326092 8.5391260860915 5.5654045078291 8.8459926874626 6.1220395054204 8.0887122949766 11.653809858699 9.9342721049094 6.9401601386041 10.068217569516 5.4502250651874 9.7675527022878 8.0516013427312 8.7224301214246 11.267627197797 11.428727603784 11.1366275623 8.9480968091146 6.2577308196833 4.9998878764868 8.5002907737825 10.148158648146 8.5027108107128 9.0346353533317 7.6920282097345 9.3035902726135 8.3003703067404 7.9775430618602 8.5437515888074 5.868870075606 6.7244737830747 8.3400569372183 6.7228075625228 5.8492801904787 6.9405288861416 9.4382630929893 7.4465468815024 5.9243251010557 5.1879840001861 10.427942127922 8.9237457972127 9.0545935664181 8.3132766835643 6.5036315248219 8.1132312312793 6.5616531754615 6.8221435879386 10.715395232686 9.2104665806574 8.234654503978 8.8423009662269 10.300789817059 7.9323731106489 9.2837837679515 5.7427873861771 8.9502184390207 11.377839369318 11.293201458641 8.60540138965 6.9400499335703 5.5117702197884 4.4804917874356 7.8921641950292 9.8997793687482 7.7334747117628 7.6991253083708 6.4779626185737 7.6946487517783 8.3620571204789 10.436825494932 6.1796638982705 9.4856170630039 10.426263037144 4.7412415301154 9.0759938338786 11.370900049518 10.437817284539 6.3328020759701 8.1752970391116 8.8674256026715 7.2940877561647 6.7902506004335 5.8482440035505 10.016277670332 9.5997156851115 6.0136737452014 8.3106664584687 8.7264159552128 6.9671663073955 6.2198700086889 5.6045638482273 9.479434987399 8.6077187941596 6.8003986839826 8.1409362806381 7.397119965503 8.285914983879 8.9051154846964 7.9984328668126 7.2162715285081 9.9181187059936 9.0354064618615 5.6522437600628 3.9836365608231 9.8993081826855 6.6004685614609 10.424491071365 9.0614928210486 6.2571769703769 9.5828643013993 4.4905622809386 7.5015207883245 3.9825759588027 4.9416515778848 9.1775311100182 6.1777147752642 10.011348478075 6.0950743564809 9.1620510630218 8.6541294848864 6.8953404615405 8.8869321778231 5.6568821296433 6.6929863747063 7.6116129665593 6.9391258593489 8.3424886662128 6.3992038274264 7.9785124060284 9.8740458705416 5.9518856774708 5.397391944793 8.531574564966 7.7975478229502 11.70831886471 7.7387138026273 10.308880309851 7.6384103830246 9.6350440071272 10.186167435654 6.7672614222538 4.6411723441968 8.4036012554417 7.4708316333777 7.6894910606904 7.7037985374275 10.907729013818 9.5437422700127 5.6910377349838 9.2571939536915 9.7429962388999 8.3342311060407 8.5206113229589 7.6855114057987 8.133445263787 7.3288829827479 4.6132006940372 8.8174912389464 4.8635024745385 7.9894907238148 8.1198118253517 9.2456124356243 6.6077813563263 8.0581395575764 8.1693578667868 8.1308080462867 7.7102158707572 6.7600086325112 5.482398945997 4.4774510508135 5.6713836780983 7.921494776265 9.6818650435548 7.9974105922215 6.9968696885819 7.5379523037728 6.1089328695878 11.794090986219 6.1327579167883 10.626722716097 9.2035377908786 4.1580419490261 9.1913925989126 9.0487489125615 8.9180566012711 8.3785339549932 7.3838312278256 6.4065775914986 6.2895701721711 6.157834644547 7.4409681927486 8.8320662297179 4.348578852732 5.5017112051312 4.8572530777843 6.0475788759522 5.3334115737525 9.3038893339067 6.9121001069399 8.3332885399102 5.2962791095746 5.4577430269654 6.2313723023822 8.4558986506106 4.8327422064021 4.7003108188538 7.368475078558 6.1764304278323 4.1326800069299 6.2427488101747 9.9372326761243 9.3824513262294 7.4553585341059 5.0168078963953 5.7214766017002 4.8293234388406 6.697326108802 7.502160669173 7.0322014666335 7.386468388867 6.9619426782836 7.2819894584547 6.5920701635905 6.9916694803076 6.8198502166443 7.0595295441718 6.0401191236493 6.9184662145701 7.0536666356107 6.401571915443 6.7477710664183 6.6823509930418 6.6904129900389 6.8697371850707 6.8759574288566 6.5085375846086 6.7284436223614 4.5408399343399 6.0684053587551 8.843368046667 4.7467251709189 10.382393097055 7.2550616488151 6.9269107084199 6.8113010033214 7.7851334116609 6.0849647412865 5.1924227546548 5.266350489979 5.2539236346293 5.8597295582445 10.257813962633 11.062025351772 10.493819785267 9.7907759639943 5.5740041433211 3.8326355528896 5.8743498382819 6.4608251504854 6.907770402188 6.0116759453758 6.390333191897 5.418554739361 6.447153717895 7.466400614677 6.8974615952041 6.9336827108485 6.6981358016063 6.7997040367556 6.3738387863465 5.6805473852608 6.6542216493462 6.6190488052427 5.0621674914258 3.7366486257632 3.3785447967628 5.0080613364386 4.4679635794275 7.0492936027281 6.8280964442767 8.300084511149 6.8121488876704 12.970301827619 11.647850370318 4.5313512050021 4.9670264450917 8.8951891283859 5.8179187040324 4.2750849041922 4.4113670085353 5.725652251051 7.4027734213621 10.836242824574 7.5141334693113 7.9622419150263 6.1798176319168 5.9337712137983 10.827938860361 5.3919791078928 8.1049327026248 11.2781905402 6.0473690346609 4.6869338832519 8.5979697898209 8.4924400676632 5.7837596508659 5.1508987793234 4.9295267386456 7.1304302038503 3.8243830671611 5.6646571176996 3.867411828211 3.8344094107934 4.4575525768984 9.732975933413 5.5567843461489 5.9431452314377 5.2292371029517 5.4417847190633 4.9701752814293 6.5895417765134 10.239557262662 4.0340788696462 6.8806465021399 3.5903387749916 4.4004349161024 5.5578218317452 4.8560104785263 4.0942656836082 4.52642770616 4.8267201273912 4.7130540768109 5.6539472956671 4.1853193921004 9.3994442195734 5.6600642758165 4.0800071990633 4.4794001360919 5.3308364150138 5.1926175196231 7.5399243697084 7.2326516231239 9.1515651342969 8.1796331234865 7.0412951358908 7.766924702328 6.2238540792096 6.9536763831503 8.433849302691 7.8141272805851 5.6993705065899 6.555520451878 6.2303999730008 8.5858990528615 7.3143622531992 3.650514939855 5.5049724975073 6.0918158020765 4.7767688638443 4.8227158423596 4.2682476226031 4.369325157262 4.1770932573709 5.1346528811222 4.1480026930342 4.9000164601186 5.8204981164312 11.322734181957 4.8337830700181 5.7899474442143 5.6490819566086 10.469113054413 8.2211470018486 4.0890557295113 3.9454337968737 3.7202052864412 4.834117493605 5.3462966987534 12.869854972252 3.9677803877899 4.5782200660945 4.9249157544234 3.4893451320643 4.5347767804461 5.6035049068958 4.9749120247896 4.918975104537 4.446565059359 5.3503386998337 4.9904066679506 4.2406642177269 5.5661066275471 3.6632730095902 4.2103122952682 4.9272276289183 4.2006008766089 3.5640032112643 3.9877710160053 3.7183525584243 3.90273770745 3.8643517108514 3.8195249507959 3.8094639367679 4.837736858571 4.5584205032183 5.6757899963926 6.0256842373529 4.0624834156181 3.6328910121702 3.506032785987 4.5246408424668 3.6456847041446 3.7307942804958 3.7305316110658 3.7489838159929 3.7633847817286 4.3634791189664 3.982963193966 4.8095361452471 3.5417601677613 3.4410878933768 4.454158367263 4.326157006127 3.4380254430029 3.4258075236399 3.7159447830877 3.7559331169678 3.6732209846403 3.7872142581515 3.5675252772567 3.774342788399 3.9422508702241 3.6574430441906 4.1738532540279 3.7521779059045 3.7282357437222 3.4889452577722 4.4535228005036 3.4694515314346 3.587583799679 3.5843494280665 3.431973304945 3.397536426192 3.5660851768219 3.5718995850374 3.8832930541746 3.6626816630454 4.3671122488378 3.5781799423963 4.1310414833613 3.4054823668799 3.5064563424835 3.911073113574 4.0363495191326 3.5399860003917 3.5187029372161 3.4305818322469 5.0437402805029 4.0224455103975 3.9064011875731 3.9128556138868 3.5209539610166 3.4377566003166 3.3867618294276 3.4865573333205 4.3057316453326 3.5019056299745 3.5604015706288 3.6695529858439 4.5571008614137 4.0149466206742 3.9931354500107 3.3961377471069 3.414686146162 4.4161578403906 4.0627415527838 3.7143512849581 3.64203665791 3.8566133826478 3.3940321989968 3.6931538291961 3.7264900446776 4.395607820392 3.5509539039759 3.5941729125815 4.1101248995394 3.6342176092589 4.0955072998607 3.7178310878799 3.7157167388759 4.4255443618645 4.5849670269767 4.3000331228992 3.5577398285802 3.7919644625247 3.4665058896193 3.3862804534085 3.4964003576292 3.5634372792706 3.6653432949825 4.1320654065718 3.9835499374541 3.9175068784608 3.9306848755089 4.0907363435809 3.8136698752548 4.4303297032643 4.3804903396687 4.3918459927689 3.6557782242774 3.6003370909462 3.5697072281396 3.7495125556427 3.9550592336473 3.4544887482986 3.5008398523238 3.7746426508183 3.5881135786641 3.7298196624101 3.6240863420625 3.8857554551341 3.922953544784 4.00118824204 3.8668583055501 4.1101900534943 4.1675038623613 4.0675731769201 4.0410703012457 3.9932152185436 4.138228080696 4.1576389975657 4.1460853961132 4.1044058721987 3.7166138978574 3.586707168378 4.2041149547626 3.7775339798321 3.6890178234782 3.8454932165024 3.928513232591 4.1142458332787 3.8557376027421 3.9806713087615 4.1730215929487 4.087310415811 4.0978307064512 4.1159354814462 3.8856524600343 4.123887312981 4.0761016475481 
SCALARS 200.00_0.41 double 1
LOOKUP_TABLE default