# vtk DataFile Version 3.0
d-2__ created by libgimli-v1.1.0
ASCII
DATASET UNSTRUCTURED_GRID
POINTS 570 double
14.5	0	0
14.25	0	0
14.386963504964	-0.201738469428	0
22.399299936458	-0.310870122736	0
22.129824335287	-0.229914148082	0
22.126320781198	-0.518791771445	0
8.472303742627	-0.591754876635	0
8.780507935475	-0.76092407121	0
8.82173151259	-0.349253271447	0
18.663262297679	-0.667179415955	0
18.934786529245	-0.453308328646	0
18.636898038907	-0.29588182328	0
4.016904362632	-0.85330676142	0
4.076038737616	-0.331410355179	0
3.713721571226	-0.470767763626	0
1.89953779852	-0.269343012166	0
1.633800503821	-0.203067612233	0
1.644492760828	-0.441295523531	0
4.368408037607	-0.250833874131	0
4.337474161742	-0.544420985055	0
4.67745607622	-0.378433532554	0
1.406172533733	-0.772361039307	0
1.913288206557	-1.218576310882	0
1.90687689783	-0.651895683444	0
2.5	0	0
2.25	0	0
2.347047126858	-0.185539804102	0
1.374000926997	-0.300418771701	0
1.25	0	0
1.114902662369	-0.201591505098	0
1.067401015567	-0.470108640981	0
5.75	0	0
5.699780065382	-0.324747799653	0
5.924584257371	-0.172748359932	0
0.883560935405	-0.231136840652	0
1	0	0
9	0	0
9.117836368049	-0.253904480787	0
2.625577516194	-0.346770599322	0
17.859079774019	-0.943547525024	0
17.535029634209	-1.703182852412	0
18.338018094476	-1.366069799339	0
19.932263871771	-0.826489183604	0
19.881635677668	-0.346204516721	0
19.622287080959	-0.573770479943	0
1.5	0	0
1.75	0	0
23.25	0	0
23	0	0
23.109690227386	-0.220340974338	0
2.75	0	0
2.142562771237	-0.172460438312	0
2	0	0
23.332392704446	-0.202507275941	0
23.5	0	0
19	0	0
18.75	0	0
18.888143078348	-0.195773419804	0
2.90152418742	-0.185685383897	0
7.612175045312	-0.180627982114	0
7.527150943175	-0.401430797998	0
7.881917737402	-0.30462800112	0
25.630635194756	-0.512020961038	0
25.243766894324	-0.80097755811	0
25.758031115142	-0.952821630144	0
3	0	0
28.84859809239	-0.201276387394	0
29	0	0
28.75	0	0
4	0	0
3.835807353334	-0.199536243303	0
3.106904732949	-0.178783649348	0
29.25	0	0
29.092446172194	-0.305987136665	0
13.5	0	0
13.667851890428	-0.185102765244	0
13.75	0	0
3.75	0	0
14.407363653886	-0.441423674912	0
14.125469935998	-0.279652141152	0
4.25	0	0
5.061980176718	-0.407989246181	0
5.335512032876	-0.269401530321	0
5.113979852892	-0.173834924157	0
11.882046000841	-0.812345557852	0
12.478640631525	-1.146569360669	0
12.244190771573	-0.565936619511	0
3.633270844505	-0.195395238442	0
14	0	0
18.378272976509	-0.514977451159	0
5.5	0	0
9.619519097921	-1.16461851757	0
10.030576753886	-1.587265312651	0
9.961661342999	-1.070235523667	0
5.25	0	0
5	0	0
13.157975569138	-0.830425793913	0
13.83833027638	-1.238601004239	0
13.671302359608	-0.710707966059	0
11.325917093147	-0.8366783502	0
11.612143285947	-0.506264798476	0
6	0	0
7	0	0
6.83842404292	-0.188923754932	0
7.11236984822	-0.391746146843	0
6.631875629497	-0.169178192832	0
6.75	0	0
3.21002197083	-0.595267231049	0
3.445510026908	-0.608065324465	0
3.362318141622	-0.306501255187	0
6.120159502895	-0.164221934939	0
4.538525595924	-0.906226152762	0
13.233775457127	-1.737244787017	0
4.5	0	0
16.138065841822	-0.472802517973	0
16.126746690205	-0.221608117926	0
15.859319180798	-0.326402762318	0
26.080401003391	-0.227842452866	0
26.25	0	0
26	0	0
3.019224421113	-0.401469974918	0
8.234901607028	-0.35771789179	0
8.518285578354	-0.242327591839	0
8.328777073389	-0.153008859619	0
7.25	0	0
7.400656881666	-0.195280611572	0
7.5	0	0
5.385509485898	-0.709154879541	0
5.948697127931	-0.745234910621	0
8.75	0	0
8.5	0	0
8.25	0	0
2.214249105773	-0.404278959534	0
2.896561357202	-0.792481120253	0
9.25	0	0
4.920911116561	-0.192028847294	0
9.651670336652	-0.200847798694	0
9.849824537955	-0.19917205686	0
9.75	0	0
10.095049354068	-0.315754204277	0
10	0	0
3.25	0	0
6.738406513564	-0.710129601907	0
7.121614580011	-0.943026074581	0
11.345829942703	-0.314788260019	0
11.25	0	0
11.104427225455	-0.188863495516	0
6.052412255932	-0.372556729023	0
6.373371846535	-0.274163514827	0
10.25	0	0
10.380281579003	-0.241092027437	0
10.5	0	0
10.75	0	0
10.909079077441	-0.189427130481	0
11	0	0
6.25	0	0
6.5	0	0
4.75	0	0
3.5	0	0
10.672815698565	-0.318467932684	0
10.772487906066	-0.787092734739	0
11.020900486567	-0.439266778492	0
8	0	0
7.75	0	0
11.5	0	0
11.619450354737	-0.231443672836	0
11.75	0	0
8.139317726831	-0.163309591658	0
12.25	0	0
12.158949464947	-0.235415698299	0
12.412455385193	-0.275030800337	0
12.929165084344	-0.221336108042	0
12.686337592177	-0.258437422252	0
12.900449535554	-0.462768612232	0
12.5	0	0
9.405755833308	-0.325979504745	0
9.111697192308	-0.594170467817	0
9.457257345083	-0.753685223931	0
18.101369157139	-0.618560521812	0
18.336839281097	-0.861122419318	0
10.385948631267	-0.570640149046	0
9.5	0	0
13.411260455969	-0.342646276848	0
12.643108055516	-0.590179775368	0
13.137744715761	-0.195204172124	0
13	0	0
21.25	0	0
21.358341816502	-0.326561417551	0
21.5	0	0
13.816492716597	-0.40394453634	0
20.25	0	0
20.423452336785	-0.313445603959	0
20.5	0	0
17.789350393153	-0.390447709085	0
17.987794057246	-0.401472255242	0
17.881276545163	-0.206424156589	0
19.564465692234	-0.270867872644	0
19.290725118801	-0.49926248604	0
16.392319441256	-0.29915360323	0
19.443730892406	-0.923508713428	0
20.457987075478	-0.803203365193	0
20.167450719332	-0.505159975143	0
0.103762538371	-0.253013629949	0
0.267057015134	-0.483604909932	0
0.374713194419	-0.2320817565	0
13.25	0	0
17.415572543912	-0.230682214253	0
17.5	0	0
17.25	0	0
18.108153655084	-0.208141099276	0
18.25	0	0
18	0	0
15.75	0	0
15.544586046819	-0.246453491997	0
15.122708481244	-0.193620038745	0
15.25	0	0
15	0	0
19.75	0	0
24.149237782749	-0.319013340846	0
23.842766599446	-0.577371105011	0
24.183995039967	-0.73159476451	0
13.871646321742	-0.17394291424	0
23.862588150518	-0.245417872715	0
16.84024277193	-0.203626765466	0
16.704049384397	-0.435508179396	0
17.112673188265	-0.38804641709	0
24.75	0	0
24.832880292394	-0.290571430318	0
25	0	0
16.40158555625	-0.755912194683	0
16.850299990829	-0.757941865332	0
17.75	0	0
23.567455674596	-0.325197491724	0
16.25	0	0
16	0	0
22.645812614293	-0.197864648876	0
22.75	0	0
22.5	0	0
16.75	0	0
17	0	0
24	0	0
26.914424714815	-0.337869958787	0
26.621963281699	-0.624626679172	0
26.977877660759	-0.778408201088	0
26.622424322919	-0.264588309935	0
19.34462271879	-0.199329831305	0
19.25	0	0
19.118057075065	-0.225686869553	0
19.5	0	0
26.75	0	0
27	0	0
27.5	0	0
27.604422363523	-0.298869962794	0
27.75	0	0
17.650384190064	-0.227839036584	0
18.343198956448	-0.236734208617	0
18.5	0	0
24.25	0	0
20.143897114391	-0.233773711865	0
25.5	0	0
25.25	0	0
25.344389320279	-0.31693710653	0
21.059546193318	-0.24845941382	0
20	0	0
25.842927934822	-0.248287716678	0
25.75	0	0
25.613904645132	-0.216025146631	0
21	0	0
11.763551406169	-1.481607093928	0
30.981104050195	-0.5526690913	0
30.873880294509	-0.217692518774	0
30.706626759758	-0.34945139905	0
20.75	0	0
20.85240828135	-0.178025243856	0
23.75	0	0
20.66289882074	-0.189089155251	0
30.204950808504	-0.791758966623	0
30.715535843381	-1.149995259266	0
30.543724897762	-0.572259098027	0
30	0	0
30.180216671806	-0.343473673313	0
30.25	0	0
23.229584388362	-0.458653998547	0
29.5	0	0
29.623391954444	-0.322069028408	0
29.75	0	0
21.618913855927	-0.233585823579	0
21.75	0	0
29.348490380579	-0.521100538161	0
29.36294710412	-0.230601226356	0
22	0	0
22.25	0	0
28.25	0	0
28	0	0
28.129259193923	-0.314252106503	0
28.44374413871	-0.484576386004	0
28.100199615755	-0.812038297775	0
28.649230646972	-0.871769248311	0
28.618403654115	-0.227691192115	0
28.5	0	0
28.387848605749	-0.205892081491	0
29.054768525933	-0.708603081552	0
29.344906532636	-0.846887322836	0
26.327430876245	-0.35930637997	0
10.349120516034	-1.04150119828	0
10.894920134778	-1.514321070539	0
24.59640839418	-0.191760546865	0
12.75	0	0
24.5	0	0
13.102881121377	-0.411296235356	0
25.099388239946	-0.214879887129	0
25.97986022697	-0.52841375324	0
24.398993403151	-0.196312410538	0
17.860840746535	-0.577367743328	0
17.566481510048	-0.529340016102	0
26.5	0	0
16.637148248735	-0.188015807345	0
18.183918302467	-0.396443618316	0
27.159348252167	-0.205297590358	0
27.357530053515	-0.198815038154	0
27.25	0	0
15.060354649709	-1.112587998155	0
15.51532665618	-1.043792149387	0
15.178150912169	-0.713100616689	0
10.051363365948	-0.719159376333	0
14.661248691948	-0.27865166374	0
14.75	0	0
27.868836823455	-0.217301839861	0
31	0	0
30.75	0	0
-0.020273477909	-1.415389842481	0
1.054972770973	-1.487485199502	0
0.512583677021	-1.0438154777	0
0.75	0	0
2.361419414365	-0.794513604096	0
29.890297721653	-0.2433406165	0
30.473599299501	-0.238575611274	0
30.5	0	0
30.660802173874	-0.161931182737	0
28.783812899585	-0.467926883932	0
4.937022539393	-0.72440615077	0
6.696914540879	-0.380672503721	0
7.434272221796	-0.695675918868	0
15.339606453815	-0.166204802571	0
15.281953315711	-0.388999642276	0
11.893544445085	-0.335972898148	0
12	0	0
9.753796445798	-0.478866225926	0
7.720012958977	-0.638314519759	0
21.871398197179	-0.313006985103	0
21.615176662754	-0.521922347305	0
21.856785525528	-0.665128848631	0
20.792152536902	-0.448319093295	0
21.109577821412	-0.527879642114	0
21.360297691811	-0.734200004244	0
15.547854961707	-0.580173571081	0
24.496861814148	-0.467031445896	0
25.067351422649	-0.463427753535	0
24.81263825963	-0.684738154192	0
22.865620821195	-0.218348593093	0
23.443705587002	-0.773171720633	0
27.277617447467	-0.489224417775	0
27.863714790534	-0.471681393437	0
26.239117668995	-0.863279739365	0
29.896797054636	-0.547765129844	0
29.612773839625	-0.699757135752	0
29.867172666547	-0.87444432816	0
29.610354212963	-1.521444655905	0
29.59548165142	-1.071765512911	0
29.115129171034	-1.220660174798	0
31.345359428525	-0.458952144926	0
31.144859415042	-0.241304201582	0
15.919565295974	-0.746550096707	0
16.063006820294	-1.289595303187	0
16.5	0	0
14.900855313538	-0.178071167744	0
14.161016743654	-0.72559708689	0
19.011498044983	-0.834202892304	0
16.760433281999	-1.263698818643	0
17.280361389946	-0.931704507314	0
-0.627742252535	-0.296285438777	0
-1	0	0
-1	-0.5	0
0.625738545692	-0.228405936136	0
0.5	0	0
3.313957665883	-0.865581185485	0
3.619156095452	-0.800599314657	0
[...]
CELL_DATA 986
SCALARS 160.00_0.23 double 1
LOOKUP_TABLE default
10.113121556243 8.9961166600005 8.2190088142662 7.6421916876437 6.8825957911758 9.4327173942868 8.4342413564986 6.2775871096071 9.7609041257394 9.0053567103842 8.5098355515219 9.5991195480067 8.8824221845751 9.9830395994981 9.9437665559073 9.0145847089793 4.9605367545037 8.2068966513189 10.566575125259 10.481962634598 10.344732728923 9.733203625023 9.8702686985614 9.9412676245146 10.105849713342 9.9752865825089 9.4099019774685 6.5853829596053 10.010766753103 8.9514670868042 8.5283376453363 9.5442516963765 9.0110820105253 9.9894662949699 8.3321409954752 9.8675656722575 9.5875954615364 9.0551865754872 6.440544910498 8.2303749133083 10.867601188224 7.3324368267939 9.9205321576087 5.3145394712843 9.4331929094847 8.9978211785781 6.7401846409606 7.4851459931749 9.4229261097657 9.3191619670967 8.8990019040981 8.1800262988207 6.8725761028059 9.5452126022125 7.1882054831344 9.9893936072649 5.2259607069607 10.414857970846 9.1012978200548 8.3871803603845 9.3463334513708 9.0410897234086 10.050476429034 10.640271764807 10.380891715549 10.040635757797 7.7834873854718 7.4703240351871 10.517623716389 8.4445759805751 11.014991433233 9.8374981026531 9.4917324283784 10.08051439035 9.4403921318231 7.750914024588 9.8110054030585 9.5113370851535 10.622159530779 10.345474091887 9.0471456932751 6.7370767941959 9.7477597417734 8.7905947439426 11.16802510133 11.123204062791 8.9930232981205 10.580525835768 9.9517634300418 10.839717518385 9.3457885393866 10.107389261323 8.2283659661913 9.6395563262623 8.8712848018969 10.217038426165 10.560115558194 10.335524373687 9.6263263719514 9.771798133504 9.593181799326 10.641979839816 9.2306986479395 9.9142704640283 7.5475195848343 6.7723569595278 9.5609364071066 8.6377767318325 8.3192134529436 9.0270225567513 8.4518769229415 10.266917766857 8.8845504592566 9.4602770499152 8.9754436226411 11.76527351212 8.8451673815924 10.317149747319 8.9727199315692 9.3875429584702 7.5026655034212 10.54311379028 8.5033561017859 7.8411082467539 8.5150901112413 9.6392384148524 8.2159205619749 7.8124394079358 10.277509473148 9.0634250412334 9.2314033205232 9.7244374169314 10.07764089705 10.259301927728 7.2449365581318 9.1434209105357 8.3022483126172 9.8879209232877 10.413424477042 8.0181732794703 9.2852701997579 8.3010232166626 9.7433614203411 9.4461658628916 11.59856895141 10.569717699644 9.2643548717634 6.790476503152 8.8488541071462 7.761495535183 10.825179091582 11.419084025668 8.5747952131644 10.618597224042 9.1350044075678 10.008077086505 9.9204489174233 8.68441575953 8.8109712375805 8.542750719231 11.421255265691 9.477927278023 9.3036769609842 11.922615444906 9.6328439141492 9.6614782954674 5.9907566968712 8.5179979765388 11.319712923153 9.5999811141475 11.222703671354 10.473233251135 6.3741375880579 8.4466869798747 9.1992497565553 9.641160762498 10.585809154108 9.9570424840191 8.1947161550364 8.888182865397 10.060026024431 8.785396481874 9.5316405749699 6.7802431278198 6.9892920483799 10.417632313496 9.134540600121 9.9512070587386 8.1847252481234 6.7730593332705 7.8534922139226 6.1085959088972 9.3430296962229 6.3749944291539 9.8312898266684 9.769753935745 6.3688749692842 10.726872373844 9.8346547767898 9.0137924847762 9.990524458089 8.6894562542242 9.2415073931715 9.4000175272027 9.9051936018662 7.4198110362342 8.9566530293728 9.3570308086684 8.9057432960795 9.4717919356391 8.525109949718 9.9386022345717 8.9632635908724 8.3683614650125 8.8379561907654 8.9505293796224 5.9576444108191 8.8649841031031 6.2263573016647 8.8407952992154 9.2417834906152 9.5435303651889 10.152244043319 11.942033988561 9.0389883938966 9.6555874761861 8.9996152899739 9.372401004931 8.4843935352235 10.364619157712 10.002987024929 5.5441353326326 8.5508501519252 8.6458652425619 8.7944306454792 9.1128704143315 9.2523486002167 7.0348832975246 9.1641201322295 8.4378593183404 8.4274935560144 7.832809632566 10.025096750769 9.1501680768569 9.3099324918343 9.7271751140201 8.3951504147572 9.4945803527472 8.3841712808959 8.8138714714571 7.7490618495334 8.5911945929128 7.1091508256567 8.6770893650168 9.5708528876854 7.8901862331242 9.9899027268294 9.1558889441975 10.489923528754 7.4735061181587 9.1048704944737 8.6053698387627 9.9522955814553 9.2527468769131 8.1633135411577 10.505796495303 8.1009008823196 9.8629656907061 8.0904919453676 8.1262988054899 8.914943759663 9.56723689748 9.2097304114925 9.1834802191851 9.4155278255636 9.7767249964567 8.3320429738769 9.2296151797697 9.5337727204505 9.6413355218922 8.0009964695486 9.9277062536552 10.452293040415 10.157691239225 7.0939839073875 10.439475002965 9.460253574741 10.580617698402 10.986041141104 9.6865912697906 8.5232000857186 7.9794240327715 7.8881822291025 9.9397366957132 9.0613192642017 10.864470704336 8.9120958325498 10.327735526851 11.294221507016 9.8939623418434 7.5773569522281 10.576299356346 11.194635080723 9.9427042085186 7.2475916761586 7.8889950041218 9.6509559910169 9.9619486292868 8.9542972783367 9.3441749374842 9.1109512321198 9.428960725045 8.9902483840872 8.9889564994486 8.753749937407 8.098529535666 9.3283694780069 7.5325567511733 8.2027587966562 8.9584512383629 8.3271600029699 9.038884225368 9.0007945328771 8.3981364031103 8.2896431722533 8.3739741884734 10.122730837559 7.1101803241392 6.5330085975294 5.0822527197597 8.147015941204 7.3041993267529 8.943078941797 9.0848916680334 8.1013554216515 8.5471409142445 8.6976678142658 9.0454040995513 7.7320245495018 9.5531527896505 5.7580464324429 6.4394122968243 11.278264624119 10.147104648103 9.7045819826615 9.0995267639975 9.6256040567442 10.256197950513 9.6117109251272 7.9698978785576 9.3234979138848 6.7517635114047 8.650256798154 6.232685695704 7.7863574381949 6.5190954538096 6.242037062199 7.8723323673754 7.3415049835412 8.8302491188519 8.1967491996411 5.9441775652222 7.440828717579 8.5540052753589 9.5644501703226 7.1288995091998 6.3663201188624 6.0138572222618 7.2562927433262 9.6793009454679 9.8709739920234 8.3508100649861 7.4397047580721 6.6655782554312 7.9316986266463 9.1006018870392 7.6162999014641 9.8022035689968 9.4897241684641 6.865310942747 5.7306217934553 7.9386469005511 8.9141982654487 9.5984627133713 11.022730022441 9.94931172837 8.566915147898 9.7270260143046 7.1369634308538 10.645234496506 8.5114708035829 8.1369386914139 6.6045787628528 9.3351633391287 8.0772057529608 9.7200886143737 7.7308597553969 8.5150427903921 8.7045518137386 8.7389673739373 9.9196170324836 10.257846796134 9.0844046223373 8.4802844998055 6.5603344931131 11.102196624253 6.7430261148533 9.0955353557411 9.992936396171 8.3973006726003 10.550720037553 8.6236991283332 8.6882708725512 7.8963435748097 8.9550924539595 8.7935350683497 7.3717646147751 7.2211448481091 6.1527589121404 7.6830819267533 6.3256598467341 9.3320901921312 8.7722023883997 7.2732250235898 7.4699207443278 8.6956355356629 6.944666157664 6.8635398198693 7.5741727406986 6.9799832014187 7.3587899501111 9.9105027870631 9.037080767943 8.9872293767865 7.9732288090088 9.1058363713437 5.5962503186307 8.1000421140729 5.28634124725 7.8947197260588 5.7223476681961 7.7743054813295 8.8380428939145 8.4749392647244 6.01976534196 8.8689053742547 4.9862983943079 9.7872308636146 7.1414438348314 7.7572233469444 10.269756816276 9.7734183323706 10.019627475349 7.5932285572989 5.7888817248056 4.6317179200892 7.4871886713559 9.3684547175083 7.8741549944462 8.5215282473826 7.5700098280758 8.6848767269195 8.2294323132101 8.0538443446849 7.5841457427022 5.319248916246 6.2278010304126 7.6550145150439 6.0583892382474 5.3968069597925 6.2573935842173 8.9495808556024 6.8876142569004 5.3833754159913 4.7574031620605 9.3317180281658 7.9110926276727 8.0057103394594 7.3466526545358 5.9368985967334 7.1571616389805 5.9292938979297 6.1215754997154 9.5466117369323 8.1595123243566 7.5877941101198 8.0713645307994 9.5482145165715 7.4155627656701 8.4032918677396 5.1349335067479 8.4952877775263 9.7813868115296 9.9921710356254 7.5025566750746 6.3200708425489 5.0678108122862 4.2388455942226 6.9458007831581 8.9911964548391 7.0092751849845 6.8507757066343 5.8001634650342 6.7765765114894 7.8493770414979 10.134557362499 5.6710250237396 8.9387663871695 10.063922584594 4.4930017349363 8.2975195821916 11.235683770593 9.0206476202368 5.7843628855198 7.8809412868784 8.4258606297016 6.7266282068944 6.1226948791147 5.4218033032456 9.2297753291569 9.1062592001732 5.4478617195001 7.6357146533702 8.0235772311768 6.2838070608196 5.7924827689572 5.1264631082744 9.0502392951999 8.2427243882659 8.1038513744176 7.0412601283033 7.9459870763458 7.3834212173205 8.6949179682774 7.0077341264439 7.8029544326114 8.7323423010124 8.3131551424967 5.2518089900187 3.919372660202 8.156378600711 6.0317537708761 8.6997844355466 8.5916158081364 5.6368911794715 8.6990991019932 4.1591992190606 6.4165531610851 3.8444145551747 4.6108460844276 8.2905476608909 5.7494873267665 8.125495526861 5.7264588100478 8.5163091007934 8.0249738055799 6.4710156759769 8.1880060028717 5.3821712912557 6.1987383995457 6.8941844572213 6.3130350632105 7.7688283118779 5.9249983308626 7.1325024971173 8.7827328881939 5.5613451034866 4.9737945950248 7.5166963049135 6.9379493323607 9.9482473423954 6.4058382331095 8.7473927224878 6.95126067996 9.2232952089336 9.0457451366902 5.9519171363604 4.2551935278305 7.7387557560271 6.8793942462003 6.7835757445345 6.8905929398987 10.414919092006 8.5124240136869 5.4164158836125 7.9264847741406 9.1516551930524 7.7975210034637 8.0524039227972 7.283113465062 7.6305205913485 6.8592910097662 4.3126929731407 7.538360512436 4.5329608718213 7.7503702446375 7.6898832534862 7.9289412735744 6.1490140839388 7.2074546642117 7.86699354534 7.5253783692994 7.336756773972 6.2079419458928 5.0397942466145 4.1885089165175 5.2038662688888 7.0594766469378 8.8776313256679 7.1566843622585 6.347279918315 6.776759440446 5.5956902988932 10.845399064044 5.4558597896434 9.9964063841482 8.4737119036625 4.0400694494923 8.1831088095087 8.2641135429551 7.3553927691025 7.9565939455631 6.997235276478 5.9620326664019 5.9550860821328 5.6399504194865 7.0137575615275 7.6547759011532 4.1686427875412 5.1323271488996 4.5218165382835 5.6065075397689 4.9883493531531 8.3496420386851 5.9196175761829 7.979506472517 4.9429760743549 5.147491340427 5.4599337679462 7.7572840040715 4.5802415286913 4.5491314468525 6.6033378560483 5.3631342790886 3.9876021827884 5.7967928685107 9.2948259894168 8.7024487708943 6.8149390733082 4.7293867678658 5.2277250753174 4.7311348772387 7.6357912098366 6.7234586368375 7.41961614328 6.8113433402236 8.6901990154311 8.1106142448718 5.604412405076 8.2433983527317 5.8138031286339 8.0477742534845 5.7710008801554 7.6054566716043 8.3899923433166 6.6578230986853 7.6982899464879 7.3177219887171 7.6755143650532 8.1247481917303 8.3398727097462 7.0091726188385 7.8098255349021 4.3742856650511 5.6418839045318 8.2901865790352 4.624476470747 9.2344649368245 6.742809307705 6.2253300665974 6.2049535106207 6.740300493879 5.5445077495435 5.0410937801154 4.9990350407554 5.0194232673445 5.0960131075442 9.1140121212443 10.470859317745 9.7903583080428 9.0913009696595 4.8569145791656 3.7790078846888 5.4905271638301 5.868520793149 6.2089966687818 5.5722646910605 5.8547306111019 5.2182755287412 6.0630137517092 6.4008020456513 6.1197572473534 6.0403298818523 6.1414887604847 6.5066214584971 5.721195659551 5.2773463849042 7.5308626840484 7.3871812924129 4.7908073093161 3.6222752844395 3.5042351610289 4.4138976777959 4.2121117856353 6.6896314951271 5.9976166724432 7.2479595039592 6.3727812056297 10.332077090656 10.225528027399 4.2151100654137 4.6899501419594 7.8804892513197 5.5774618101692 4.0465765699662 4.1385865547008 5.2863897148427 6.9410336709602 9.617904837462 6.6456747867643 7.1570679230024 5.4376668476017 5.5015959579906 9.8411957231036 5.0272342065884 7.1245502462381 10.871960587888 5.2882786306921 4.4045337811803 7.8619236773564 8.0540638019389 5.3484708184995 4.7697628174025 4.662984459226 6.4331243254717 3.9205518053445 5.2374294572372 3.8330721903068 3.7295888277566 4.2560242575227 8.9057684469531 4.935644975492 5.6205670333722 4.8711832970677 5.3122410472207 4.6190046380685 5.7409224170109 8.7064573347757 3.8596407241933 6.1905526682502 3.5565014521981 4.1666813181297 5.2335070570671 4.5120409191195 4.045989274944 4.0712652332155 4.5325087777839 4.4158563207397 5.0170226761019 4.0432227564829 7.8087855847111 5.1615603152943 3.9170891798755 4.3105222418344 4.9604214897836 4.8908169825873 7.0783879151399 6.9801914525891 7.7027218608833 7.4838423862053 6.5211694665694 7.0609422410967 5.9360170582169 6.3882896313424 7.3534727368168 6.9758206093033 5.4951231716653 6.1140726348775 6.0020601405484 7.407191727913 6.6276470052662 3.6619033261923 4.7670249210243 5.5969205099609 4.594679972341 4.5339162945439 4.1600617995611 4.280732626635 3.955722811729 4.6255942539011 4.0340932032972 4.5572942528445 4.9759149912403 9.9603726542487 4.5636340830471 5.380742166079 5.170914327121 9.2032275352852 7.4642767697415 3.9418863843077 3.8714286444367 3.6428490848709 4.5962235652301 5.0632638454547 10.736931861365 3.9377871166063 4.3395687571714 4.5667571388393 3.4955048497925 4.5848782692643 5.4556673788858 4.9254284246213 4.8186679493285 4.2300662389422 4.8711662473992 4.4209018792914 3.9216181735987 4.9179186035118 3.676142450994 3.9699766430493 4.6551535187649 4.2917073945277 3.5408071239857 3.9148462990807 3.6087032267963 3.7871374941963 3.7079819870873 3.6836046852099 3.7540255799283 4.592186674992 4.4041466123739 5.4457945478868 5.6280472448553 3.9301461056562 3.6262363595852 3.5474197417301 4.2626162062898 3.6452489388769 3.6674614225443 3.6814505804832 3.6813476901601 3.7537785484096 4.0793417885287 3.7544278672637 4.3835988285669 3.483021818388 3.4979726753977 4.2868590975886 4.1868468019339 3.5203155779433 3.5036954626676 3.6835470042868 3.7079317149072 3.564999203506 3.6367409309535 3.6025805127399 3.7305734888574 3.7459900708526 3.5999619046652 4.0503331154361 3.6894537083047 3.7307967601276 3.5497754048304 4.2592286183358 3.4818406256756 3.5929014545559 3.5165941570333 3.4739336274812 3.4914107932966 3.5777765108938 3.5907678772405 3.7039687072182 3.6478622411677 4.3206823060635 3.5490635975203 4.0314295992771 3.4267542666525 3.5066513346377 3.8126215472888 4.1324221899591 3.5820902417978 3.5389762526927 3.4342793739676 4.5254016032185 3.9043906130565 4.1698334523201 3.9231770247969 3.5421549086814 3.5690527716333 3.5262574040666 3.4902064429803 3.9835092497566 3.6860049084052 3.6290857555423 3.7253383704853 4.0847271886476 3.8162950498925 4.0694460912298 3.432313373445 3.6162584537899 4.4409313959112 4.1850141198013 3.8420790843443 3.6427699044572 3.9886962878226 3.424771320219 3.7677817015345 3.6665065820617 4.2046230422256 3.6742970057936 3.7945449499102 4.2534195249323 3.686039118983 4.2330121031212 3.803363665019 3.8016136314994 4.1410025174043 4.2582102726346 4.2071461440788 3.7910149470804 4.0528746241136 3.6002695265132 3.5711443355629 3.537483056148 3.5952148523994 3.7339359867588 4.2460298973855 4.1308888038777 4.0345931558425 3.8354106293561 4.062358034133 4.0178897788312 4.3010395850653 4.4860111233761 4.3265216388386 3.7226321958167 3.7109517545957 3.6318154796077 3.8330544765913 4.0565482321819 3.5087361534858 3.7049676164024 3.9134129346692 3.6581521571648 3.8173432881077 3.6878531568583 3.9929375829386 4.035281554938 4.1203467882629 3.9670388067508 4.2944466504293 4.3183794410972 4.1999819904156 4.1722097339703 4.1133054285925 4.2815003062692 4.309650603173 4.2883068405077 4.2411541577142 3.9129957678884 3.6896490881194 4.3562424852179 4.0136790154786 3.8461940535515 4.0025223673487 4.1267304559315 4.2589596942303 3.9531106341329 4.1006451422062 4.3475883190935 4.3054113393178 4.3231612917538 4.3647594165133 4.1250145444787 4.3767142686129 4.3402078389538 
SCALARS 20.00_0.17 double 1
LOOKUP_TABLE default