# vtk DataFile Version 3.0
d-2__ created by libgimli-v1.0.12
ASCII
DATASET UNSTRUCTURED_GRID
POINTS 1303 double
5.625	0	0
5.511811217919	-0.146388704457	0
5.676386535709	-0.13519637448	0
0.25	0	0
0.175228502521	-0.179050409113	0
0.326009290428	-0.144330725415	0
0.375	0	0
0.990207725992	-0.114957291708	0
0.841075314552	-0.137634199948	0
0.926498288371	-0.349340723189	0
-0.001071200562	-0.386156929004	0
-0.003317641763	-0.130454088023	0
-0.192720422374	-0.216308252768	0
1.25	0	0
1.175215748534	-0.200562384647	0
1.341115762259	-0.128605193971	0
1.375	0	0
2.25	0	0
2.168494514827	-0.19848886597	0
2.338304607341	-0.128945294536	0
2.375	0	0
1.911268305082	-0.334701951691	0
1.986191885908	-0.110806668109	0
1.838390258011	-0.128853462534	0
1.75	0	0
1.670105949089	-0.197137117999	0
2.986685504441	-0.10889534818	0
2.838723720416	-0.127406828384	0
2.912854264006	-0.329775839393	0
0.75	0	0
0.664572693147	-0.222613872306	0
3.25	0	0
3.168798596028	-0.193682232199	0
3.337828500197	-0.125181208794	0
2.875	0	0
2.75	0	0
4.25	0	0
4.161099470995	-0.193412132741	0
4.332718836325	-0.127723897736	0
3.83511440706	-0.12403687807	0
3.875	0	0
3.75	0	0
3.901908238995	-0.321557035295	0
3.983050435256	-0.106770030737	0
3.665527023987	-0.190866765849	0
5.25	0	0
5.164693411436	-0.21656556845	0
5.338419985376	-0.147288917438	0
4.834321952324	-0.135810575609	0
4.875	0	0
4.75	0	0
6.25	0	0
6.178399669611	-0.137425451145	0
6.356205370496	-0.193853696818	0
5.817814980918	-0.161175429964	0
5.875	0	0
5.75	0	0
6.611939839541	-0.314381537706	0
6.522886280605	-0.104721203126	0
6.75	0	0
6.669178832877	-0.119404962711	0
6.836073690852	-0.177498311423	0
5.39059629209	-0.37339102075	0
4.660917359886	-0.204007052252	0
4.902096977384	-0.356327271651	0
14.897042426984	-0.319128540459	0
14.98121339776	-0.105010975498	0
14.832720105416	-0.123004000492	0
2.669265824618	-0.196872625129	0
7.656019919505	-0.144451020927	0
7.75	0	0
7.625	0	0
6.625	0	0
8.75	0	0
8.672937461928	-0.164309120831	0
8.834289374889	-0.109279841483	0
8.206809119751	-0.294811800109	0
8.187056112549	-0.110869448227	0
8.024316200302	-0.129362764133	0
7.157390904024	-0.111206354394	0
7.25	0	0
7.125	0	0
8.25	0	0
8.125	0	0
9.75	0	0
9.651145885459	-0.185384966231	0
9.827054067621	-0.122428024454	0
9.381816956327	-0.305807769915	0
9.476753337472	-0.101567493772	0
9.327490061855	-0.116748040282	0
10.75	0	0
10.655660803951	-0.196164841752	0
10.830485405183	-0.127989131147	0
10.386748323888	-0.329675548046	0
10.478464938155	-0.108955040137	0
10.328560245085	-0.126395562242	0
9.25	0	0
9.375	0	0
10.25	0	0
10.15270392044	-0.192469144253	0
8.328856990144	-0.128933011689	0
8.375	0	0
9.153857570119	-0.175508527296	0
11.75	0	0
11.660624577581	-0.201812344528	0
11.833823570609	-0.131890823957	0
11.395399221028	-0.337817920558	0
11.481219500696	-0.111845889235	0
11.331881500183	-0.129806070652	0
12.75	0	0
12.669299873111	-0.199190799603	0
12.839534650452	-0.128328673855	0
12.40897914742	-0.340185307353	0
12.485654611126	-0.112072117633	0
12.336727606385	-0.131188239877	0
11.875	0	0
12.25	0	0
12.164627546098	-0.202605127067	0
13.75	0	0
13.669268468008	-0.186168180444	0
13.837322273199	-0.120178339978	0
13.416957459915	-0.319650485848	0
13.487510959619	-0.105281058988	0
13.34010202956	-0.123833443479	0
14.75	0	0
14.66080663422	-0.189613659871	0
14.399926333663	-0.319306441484	0
14.4823067449	-0.105599641009	0
14.334114343934	-0.12250571155	0
14.875	0	0
15.25	0	0
15.158227025815	-0.185762723401	0
15.330441202311	-0.11956675178	0
13.875	0	0
14.25	0	0
14.163960939829	-0.186365139356	0
12.875	0	0
13.25	0	0
13.171786689458	-0.193064330135	0
10.875	0	0
11.25	0	0
11.158129238503	-0.198418008741	0
7.31587636932	-0.171642077952	0
15.3902841013	-0.308450173235	0
15.478958243586	-0.102394874489	0
-0.125	0	0
0.125	0	0
0	0	0
-1	0	0
-0.706889652808	-0.331752981492	0
-0.5	0	0
1.125	0	0
1	0	0
1.625	0	0
2.125	0	0
2	0	0
1.5	0	0
1.488007132967	-0.109900770852	0
0.5	0	0
0.474245721096	-0.130043839003	0
0.625	0	0
3.125	0	0
3	0	0
3.625	0	0
4.125	0	0
4	0	0
3.5	0	0
3.485533411273	-0.107014956798	0
5.67736414417	-0.368119689468	0
5.125	0	0
5	0	0
4.98353533542	-0.118243061674	0
6.125	0	0
6	0	0
6.009467825362	-0.139471566496	0
6.5	0	0
4.625	0	0
5.5	0	0
4.5	0	0
4.481603306259	-0.111052305129	0
2.5	0	0
2.486482293556	-0.110456056597	0
2.625	0	0
7.828740664136	-0.157959666613	0
7.5	0	0
7.497789303332	-0.098817221798	0
8.625	0	0
8.5	0	0
8.493725508365	-0.094448160765	0
8	0	0
10.625	0	0
9.625	0	0
9.5	0	0
9.125	0	0
10.5	0	0
10	0	0
9.976983002093	-0.106037154081	0
10.125	0	0
9	0	0
8.980258705317	-0.095443922293	0
12.625	0	0
11.625	0	0
11.5	0	0
13.625	0	0
12.5	0	0
12	0	0
11.983083448534	-0.113269018621	0
12.125	0	0
15.125	0	0
13.5	0	0
13.125	0	0
14.625	0	0
14.5	0	0
15	0	0
11.125	0	0
14	0	0
13.984735949845	-0.103165953766	0
14.125	0	0
13	0	0
12.987740386932	-0.109238757727	0
11	0	0
10.980033547654	-0.110118532971	0
7	0	0
7.012790729926	-0.096165366155	0
15.625	0	0
15.653391866104	-0.184257106926	0
15.75	0	0
16.25	0	0
16.151956269841	-0.190746813766	0
16.328162175541	-0.125534698515	0
15.827345422636	-0.12109528269	0
15.881623705918	-0.315197408181	0
15.9768075603	-0.104841845177	0
17.25	0	0
17.155473725888	-0.187015736188	0
17.328334720487	-0.12053442359	0
17.375	0	0
16.97978281674	-0.105790715925	0
16.830585534618	-0.124270763258	0
16.892220832712	-0.321708894118	0
16.75	0	0
16.655725821363	-0.19281499559	0
18.25	0	0
18.144056513649	-0.199584109463	0
18.322695877645	-0.133173012767	0
18.375	0	0
19.25	0	0
19.156955168382	-0.212194778097	0
19.332395147696	-0.137501625504	0
19.375	0	0
18.978107771567	-0.118463258117	0
18.827251646435	-0.137822523984	0
18.884674261801	-0.359498065923	0
18.75	0	0
18.648603260315	-0.210400354993	0
17.973004229039	-0.108213471414	0
17.823362138939	-0.124125311933	0
17.87020700187	-0.324156104502	0
17.75	0	0
17.64837652944	-0.187413016584	0
20.25	0	0
20.167288289523	-0.206556633625	0
20.33799343326	-0.133667464393	0
20.375	0	0
21.25	0	0
21.172020853715	-0.201327641466	0
21.340729826518	-0.130206344264	0
20.875	0	0
20.75	0	0
20.839555732676	-0.132066213667	0
20.987710400762	-0.112937783384	0
20.915843633601	-0.342386775443	0
20.669904108595	-0.203936882105	0
22.25	0	0
22.168893714495	-0.194483818359	0
22.337089427477	-0.126591453251	0
21.875	0	0
21.75	0	0
21.840184239699	-0.127666317168	0
23.25	0	0
23.162361450448	-0.215073727418	0
23.335945395372	-0.148199257458	0
22.875	0	0
22.75	0	0
22.83504078106	-0.133126573368	0
27.412614995451	-0.337768305098	0
27.406417478875	-0.760610856776	0
27.663031754041	-0.476449210851	0
23.674319496044	-0.139602731619	0
23.75	0	0
23.625	0	0
22.902876337082	-0.348446434986	0
22.664415839639	-0.19979598046	0
21.987454968006	-0.109075483352	0
21.916658702332	-0.330379709848	0
21.67241042914	-0.19774510361	0
19.984830323221	-0.115851903278	0
19.835879034474	-0.135573032779	0
19.906686139011	-0.351521653308	0
19.75	0	0
19.663378765328	-0.209646647928	0
24.75	0	0
24.672305039303	-0.121865624882	0
24.84054616259	-0.178479133746	0
24.25	0	0
24.125	0	0
24.179559510218	-0.145425217914	0
25.656694723316	-0.141492417978	0
25.75	0	0
25.625	0	0
25.25	0	0
25.125	0	0
25.159224348757	-0.109007087058	0
22.647257188685	-0.476376729768	0
22.872248033711	-0.780455516934	0
25.317652966423	-0.167196322239	0
31.908525182248	-0.237434634112	0
32.248547795208	-0.367887731521	0
32.025	0	0
26.398062594932	-0.327144710524	0
26.335089901602	-0.124890632532	0
26.169730315141	-0.188549564961	0
26.75	0	0
26.662500836065	-0.197477656933	0
26.835401004001	-0.129534360312	0
26.375	0	0
26.25	0	0
27.486869476066	-0.111474770432	0
27.338367230812	-0.130187170762	0
23.816158307302	-0.168335740772	0
23.875	0	0
24.625	0	0
27.75	0	0
27.67023663024	-0.198727549038	0
27.839431305592	-0.128541986375	0
27.375	0	0
27.25	0	0
28.75	0	0
28.666013303123	-0.192953151514	0
28.835335299513	-0.125393524551	0
28.875	0	0
28.41074998604	-0.32692743598	0
28.485854239984	-0.108071323096	0
28.338261561589	-0.126341817439	0
28.25	0	0
28.169650699531	-0.195402875109	0
29.75	0	0
29.656991685033	-0.201213204108	0
29.830700495316	-0.13323291855	0
29.875	0	0
30.75	0	0
30.665605116896	-0.213760177502	0
30.837855425721	-0.139272404211	0
30.875	0	0
30.987248292653	-0.119871959545	0
30.911614165903	-0.362389547989	0
31.25	0	0
31.174363802618	-0.217041176186	0
31.346460135447	-0.143418487957	0
30.400599561582	-0.360265197586	0
30.483280501431	-0.118794220148	0
30.3336351656	-0.137924489201	0
30.25	0	0
30.159375273254	-0.21004086356	0
29.392934647931	-0.331414044449	0
29.48031118177	-0.110263057575	0
29.331777210358	-0.127344913482	0
29.25	0	0
29.160548153072	-0.194064979946	0
27.167334579456	-0.200440763045	0
24.359650796728	-0.20304719459	0
-0.25	0	0
-0.404335947278	-0.221464959739	0
16.125	0	0
16	0	0
17.125	0	0
17	0	0
16.5	0	0
16.478267427857	-0.108008273171	0
16.625	0	0
18.125	0	0
18	0	0
19.125	0	0
19	0	0
18.5	0	0
18.473681471998	-0.115768873419	0
18.625	0	0
17.5	0	0
17.47687846862	-0.103462148239	0
17.625	0	0
20.125	0	0
20	0	0
21.125	0	0
21	0	0
20.5	0	0
20.486446843971	-0.114298370976	0
20.625	0	0
22.125	0	0
22	0	0
23.125	0	0
23	0	0
22.983281399654	-0.116385827149	0
23.5	0	0
23.509214189908	-0.149359691049	0
22.625	0	0
22.5	0	0
22.48467632496	-0.1093719097	0
21.5	0	0
21.488472844532	-0.111208801785	0
21.625	0	0
19.5	0	0
19.482219828947	-0.117572233456	0
19.625	0	0
24.5	0	0
24.525433875838	-0.108080714825	0
25.824234283709	-0.149177038136	0
25.5	0	0
25.498573523516	-0.096586408813	0
25	0	0
25.014769107289	-0.095147895568	0
21.919931345447	-0.741308582321	0
22.160361550711	-0.463896476278	0
26.625	0	0
26.5	0	0
26.482631880244	-0.108512805864	0
27.625	0	0
27.5	0	0
27	0	0
26.984612185119	-0.111680714924	0
27.125	0	0
26.125	0	0
26	0	0
25.990349817319	-0.10847866492	0
28.125	0	0
28.625	0	0
28.5	0	0
30.625	0	0
29.625	0	0
29.5	0	0
29	0	0
28.983089608831	-0.107750428826	0
29.125	0	0
30.125	0	0
30.5	0	0
31.63125	0	0
31.5	0	0
31.494696987447	-0.123712578064	0
23.671261205816	-0.380102168636	0
31	0	0
31.125	0	0
30	0	0
29.980228243528	-0.115525062547	0
28	0	0
[...]
CELL_DATA 2263
SCALARS 1600.00_0.96 double 1
LOOKUP_TABLE default
9.6026847348634 7.5628083133863 7.5839713432041 8.6168340771668 7.7693236573827 9.4115489082157 9.5089427764607 9.7181370632721 9.7437355425052 9.4859989802779 9.4365437820979 8.8800648594789 8.5034931548607 8.6550807363209 8.945620577741 9.4786110526023 8.2432157873516 8.4234936411317 8.2050203390074 9.2607170579167 9.0801071339402 9.3010866777707 9.541114592028 8.996984825986 8.8394456695566 9.3160492046667 9.57507108846 8.9210360783665 9.0098376076236 10.549467512112 8.9880323291336 10.440983616801 8.7865165546815 10.131574049124 10.111944955827 9.8008559363631 9.9809788809328 10.296902756116 9.5413659465903 11.115624197284 10.918659092194 9.3321564224872 10.992203822794 10.019860430457 9.3988120916302 10.831437134136 10.486791670348 9.456944858186 9.7221670809868 10.753265230438 10.068926469776 10.860703409247 10.627011156628 10.740419432548 11.024538891471 10.672417814068 10.122089306383 10.894233802536 11.118532699093 9.5789918665351 10.32304170636 11.18651523208 10.324064067141 9.8945848110297 10.122816917218 7.8985067039816 7.6697260020207 7.0240298313778 9.3866502017089 9.0721583041935 9.400051121207 9.7781303584605 9.4437584705498 9.7675494715857 8.2893692906868 7.4911122682764 8.7792325827976 8.9703330752856 8.2111691259 8.9707005300021 8.4037718087198 9.4187571145348 9.4498348301975 9.2170112894526 9.5427547427791 9.5324292191197 8.9205686383365 8.9984577882263 9.6456364773731 9.468331229667 9.2406297694448 9.2072848635602 9.4706569510227 8.5031627007563 10.456602978828 10.401210020124 9.9947918397371 10.351137099382 10.225884775201 10.236762276538 11.118267066322 9.9896249975486 9.5227972452502 11.18609276405 10.691389176064 10.925757127683 9.8692188156405 10.304135839476 9.3748978033137 11.020990534315 10.858557625196 9.5926250954503 10.429099720565 10.199437575601 10.255961002289 10.884502069655 10.157876092895 11.148065199474 10.547386318119 10.41481625986 11.22205171988 11.186039215846 9.9658912597172 10.895467342565 10.869904970645 11.075690620272 9.5687219356941 9.1062189677989 10.663674026858 10.772078366047 10.558913274835 10.061365531414 10.046638225144 11.111837017276 11.690959284477 8.650918135049 8.6093983916054 10.19781444617 10.321366629504 9.3873911265505 9.2221860605825 9.5211303856462 9.7559243295275 11.383455079042 11.457173030947 9.2007003585458 10.082668881773 9.8963370128594 10.109249166277 10.020142501933 9.769936013592 9.7870916976763 9.2863614351025 7.6742896185854 9.2030325616658 9.1972805928806 9.2603402591461 9.7139359571782 9.7459038774037 10.466697210567 10.268781912458 8.9349532943504 8.3464872906777 9.5452835178592 9.8697497986202 8.1120398295276 9.8302897547321 6.1006247889975 9.0978570610427 8.1990329738069 9.4841821785745 8.3785822733717 9.1378033786094 8.914855094223 9.4752236678554 8.6034966963761 8.2828683657638 9.2729056778551 9.2961426330207 9.8045390602094 10.17109632558 8.919221115774 8.9044356045365 7.805978969104 7.6674806747077 7.4922839096637 6.9014545413248 8.0762966004086 8.0076021051461 9.3614680292884 9.6222473744358 8.2669952943164 8.3399169640846 7.6020847099842 10.79732159603 10.772046665466 10.786618170282 11.471258764835 10.654646279039 11.76146153415 9.1974441142646 10.140845326908 9.8628429507916 9.0477280319691 8.731258632599 10.03276995621 10.174308924507 9.8546535612901 11.164048850521 9.2607938976427 9.7002277726268 10.79291345383 11.451884880755 10.106767824273 10.086630726088 9.151497304028 9.7798106244914 9.4952393738799 9.3068397493965 9.6601332136677 9.863532147143 9.7235027057944 10.243600699848 10.370340030458 9.1865817046439 10.244536989051 8.8588931153494 9.4216184237433 9.7715601660142 9.730833190983 8.3991277474873 8.2688372209903 8.7607328743421 8.5854193703609 8.5714597944028 8.3457918281123 9.5746197189727 9.568139287754 10.143951890321 9.7027487656005 8.0120057472439 9.2885208547623 9.6330961178562 9.0031117511054 8.0890286542521 8.1838209512422 8.2757150469698 6.5511173381354 9.0730232170155 7.3866568681311 9.6850460181561 8.4871756112382 7.0811090523888 9.5817112457288 9.3120861700348 8.6965590008712 9.7971478172937 6.6486725734004 10.473284291317 7.5837231839075 9.1467211470099 7.9263735304042 9.205151254548 9.5448960373287 9.7515902315953 9.6670888067016 9.3736354882981 9.7223704607274 8.4427332685134 8.7764734451091 8.8738682105024 8.5191043661667 9.1786379176189 9.5322815117954 8.2911389460362 8.5917673618045 9.1947736614815 9.5961923105396 8.6817640987414 9.1302506435657 7.8634178704638 9.3536583951053 9.2358332989592 9.5608769757217 9.0603873262784 9.2426216862263 9.2694963712148 8.9592831568838 10.498800972758 10.334127423588 9.9690657206455 10.307803932072 10.242925229307 10.173575497343 10.524706219974 11.100193726996 11.159674030623 10.756190891662 11.28093853776 9.7173225362156 9.5675800612484 11.081982218145 10.535894691627 9.422136353455 9.9002538542667 10.242025660864 9.9141369978528 10.886268998559 11.093739852371 11.025740447505 10.59570436133 10.404648174244 10.217830773795 11.213750235095 11.164256681078 10.049333570028 10.820616651908 10.637670888433 10.590777986331 10.227118301112 10.357436171859 7.4318869735997 10.564489011989 10.795058785973 10.750247033301 11.151926890217 10.400973564019 10.088574804243 11.569679093603 11.371182853161 8.9579239071656 8.8187250855403 9.9861048652034 10.463805137904 9.1470835784154 9.5900577247085 9.936837864707 9.5497381467884 11.278590478843 11.224588407361 9.478919885296 9.459081234153 10.456002954148 9.97114490463 10.073353879164 9.9253515531534 9.8120899338921 9.7408705501984 9.0774040507179 8.9996198298136 9.4465847383592 9.5585513059758 9.7854502807306 9.9358559746204 10.276603314038 10.783390720892 9.6317180027882 9.4312998511487 9.7998299085821 9.4620782005363 8.8330899717545 9.8126544531589 8.4731768979074 8.3083597984895 9.5341102345949 9.1928010371222 8.5901582271289 9.0832488666542 9.4457328624172 9.4878653607803 9.8389494960355 10.093911463672 9.1094860481746 8.7640683334949 8.1449821933779 7.4438297495756 7.240406993707 6.6080243753493 8.2943935271425 8.0294361468706 9.6485161201067 9.5119474443853 8.3267416190659 8.4540880283689 8.823219158309 8.6435264739742 6.2682548634317 7.7939861784254 6.3682409921448 7.9149783676558 6.460484909884 8.4816262966301 8.5324621494838 8.9729103598494 9.5252847944379 8.6125982877533 8.7838217293334 9.285166738092 8.186347009184 7.9293601356688 8.3125152426462 9.6014189539096 8.3399989931939 9.3522451717113 8.7753156407868 8.4597566602547 9.3217881952256 9.3671346632709 9.1774543703715 8.1685114719402 9.0557120139524 10.538050738753 9.064837352911 6.4186908457123 8.6717816925896 9.2546336939356 9.4852927964205 9.503444050703 10.250088366335 10.066048396751 10.276906580152 10.356337629224 9.525545546704 9.5909167889895 9.4633757564092 10.216600015755 11.137841457443 9.8991678652662 9.7688578999486 10.249076541773 10.091785530797 10.047846811074 10.282211268022 9.067456966734 10.088487795038 10.365627684514 10.613857189568 10.315704513608 10.482309091802 10.352890833408 11.122195788458 10.073617735135 10.917779009197 10.713890874215 10.732637333796 10.961990624556 9.4636367431044 9.7203690041389 10.839001009468 10.973642014327 8.9013114076573 10.131768601916 9.9233679240824 10.844111708283 10.223309107955 10.953678244954 11.754776829059 8.8556881468041 10.506604092481 10.833899135066 9.7360140617107 9.1221230783076 9.2822703981634 9.8897304118549 9.218721374383 8.8217252752723 10.580088460569 9.994391517771 10.352489700072 9.1830726103668 9.1418941893405 10.046122931803 10.638005462779 10.899626026283 9.1080201027957 9.8279356899398 9.2147673411925 8.6622809326116 9.3579512161111 9.5434256600376 9.715485959772 9.7202933911201 9.6359545333446 9.3908871371195 9.554896149146 10.152834774616 9.4230569056658 9.3956274612556 8.6399260779395 8.186670771679 8.6533482922104 8.2158607125395 8.6868944866989 8.6575852715739 9.2922867486883 9.6090090833513 8.1784707072526 8.9270462159083 10.287225651934 8.6694359095576 8.4448306612902 8.867824098738 9.6396886460586 7.7626980119364 7.9401178116922 6.7871202750527 8.076903208614 6.180657718207 9.1227843432607 8.7361591552339 9.4832839679262 9.3359020252864 9.0595439927789 8.2027624760879 9.4061039512094 8.5449301018238 7.2096755184093 7.2362733221793 6.9899260948534 6.5532056416668 7.785755551437 7.7523948009151 9.1488669714578 9.5003165553567 9.4615246313639 9.7063777056795 9.3168112136572 9.5966362328045 8.4489395847126 8.6045221166949 8.4725591348073 8.5643847594264 9.1398372244455 9.5589240088472 8.2352617885696 8.3649271926064 7.7251729988328 9.4510511385975 9.3928464036654 9.2840505787272 7.3798644590319 8.9495632628512 9.1583110387903 9.5338751307266 8.5187351430401 9.1512741569991 8.8627537784545 8.9421839478869 9.7039925515556 10.548824285775 10.247390725132 10.031084158894 9.2175505989488 10.135651666722 10.081291608843 10.385077687035 10.872019533166 11.186143561746 10.700828663078 11.176794873543 9.4572188266244 9.4075414212177 10.353351669753 10.602576215086 9.4872505799843 9.7249375582245 9.6983081492607 9.9984519710746 10.817073284058 10.973694007652 10.558771962525 10.628817400298 10.046656368576 10.104008278548 10.946590026832 11.129049630022 10.357681842088 10.643538465205 10.354367960437 10.3964816873 9.526773892115 10.062207406611 10.430323056645 10.721804223964 10.61584349392 10.933411065738 9.9614398686387 10.064322505031 11.116919925639 11.573993639946 8.753539906533 8.7036092519097 9.9494195053613 10.368825288369 9.1880480931513 9.3959410890785 9.5671478362856 9.6686532769333 10.835609781394 11.337026134119 9.2629459685558 9.2965228987323 9.8957497269291 10.049888714072 9.6741520318085 9.9810371691058 8.7937164718898 9.7711079242553 7.5711959509561 9.0954801335832 8.8632123947226 9.386147267764 9.572922579469 9.8096622598575 10.18842335294 10.50574952084 7.5950250569696 9.0305070712648 8.8434545231737 9.3779232189865 8.2935483726402 9.8483675327937 8.6667301676054 8.2457849773464 8.3278556795597 9.3562465346888 8.6180349775607 8.7988664454145 9.2142000091758 9.3659582439264 9.7133494958893 10.187483853665 8.7705825664023 8.8573958283561 7.6325935787994 7.55428684367 6.7710391904756 6.6970268551845 8.0816468167849 7.985337895849 9.3499266002788 9.5729307176452 8.2647518612414 8.3549393139081 8.1650008731809 8.3540554223363 7.4179553737778 9.2004495164645 8.1344552836804 9.2723184935584 8.9613062359057 8.309696084453 8.2907441030244 8.7859806178787 7.8102500167604 8.0036207820224 8.6007886675599 9.0254597791738 8.4629544223289 8.4162103503524 8.2189837388229 7.9963895027644 10.006489035053 9.7039103660319 9.2743448517941 9.6938570027154 8.7486508390747 10.209372328208 8.461880258974 10.126098569352 10.082139827685 10.145410056724 8.2724760401234 8.7159779309403 8.9525666033615 10.006849473055 10.409272547576 10.310516333968 8.7810143307853 9.9143089008789 9.3924713972265 10.73568504023 10.250199861845 10.017633373082 9.5298650560302 9.8070692454491 8.6684694749872 7.9535586763291 8.8566883213341 9.8624049880528 9.1122058004813 11.001495807512 8.5133766446783 9.2823669419139 9.8233114483929 10.391289729989 9.5465534295824 9.8499316667232 9.8238594199793 9.9922711171054 9.7963616469809 10.528484689417 8.7357654082544 9.6628983094777 9.4447068996793 10.146561629022 9.2375240360259 9.6725506175395 9.305798693435 9.8748353346743 9.2834653033105 9.8802392302342 9.7183705237842 8.9557576249287 9.3066267998221 10.251013841397 8.273991692746 10.080250454522 9.2348587867622 10.472845035948 8.2681490208695 8.7157982641265 9.0692798538879 9.4241600354653 8.9353311793172 9.5064597005888 9.0441601046259 9.4517741950709 8.6871610971165 9.6409177618182 9.2319166865279 7.7689473233526 9.1581761870407 6.0689113450689 7.8671268305467 7.6267331221868 7.1364398393008 8.4392571104829 7.9090860766655 9.0706848145971 8.5532653958381 9.5009405890097 7.1310098030374 9.0518343744609 9.3161943658007 8.266231533501 9.1344587000946 8.7052645500982 9.5932629638679 9.1811500272499 9.1506358339265 8.4572337769475 8.0084993451663 9.3754292252168 8.8855941665567 8.5057192043847 8.2372139218529 8.7698753649257 8.083807707539 7.2918225205984 7.189524173687 6.5119749369189 6.6092917879854 6.1186730517641 7.7154214873276 8.2161055486281 8.3610533591863 8.9356234430881 8.6120802370366 9.220349897835 7.7318133506752 8.2242869104272 6.8202721200358 7.2571635394568 8.8623103274061 7.7401431470238 7.2307112784865 7.7736707585352 7.5134309578958 7.7281175432493 6.3528298057332 6.8188848301034 6.2249532160791 6.2367740287223 6.0064932692995 8.8284632799309 7.204882696375 8.5831567954782 8.3175561943366 8.0946948472991 7.9339337918477 7.3885347223338 7.6485338086194 7.9798876079776 10.121979098284 7.6958409084134 7.6305565586953 8.6883174042512 8.4898651805895 9.5976093468441 8.4632134043729 8.1506784768006 10.076954911119 6.0510374269811 9.3065765790088 7.6310443271513 8.5129456233792 7.9907890154677 7.8857716791333 7.7565974536858 8.1928324908385 8.8310318490742 9.221636808826 8.7622423285564 7.3046765584059 9.9292090863746 9.1946535206413 9.5256626395966 9.337986303922 9.8483470637607 8.967887198671 9.7368038842489 9.1857534605459 9.1936469699614 9.0007943147575 9.7851973635397 8.5054350913666 10.249651747848 9.894872449424 10.505767064086 9.4555487296588 10.409937842506 9.8653694267001 9.8347818671405 9.4018420252494 8.0539327114859 9.2058638936569 10.044063634014 9.276170038315 8.6825919395146 7.9750013167721 5.6636686794852 8.4277407386588 7.3722496350005 9.2549050815378 8.824631222109 10.022361188645 9.3009418850235 9.3497773011982 10.288950414535 8.5394138602119 9.3009013820933 9.3602476931894 8.7676807356372 8.9007009704902 8.7128229569586 8.3744761622214 9.3151225947789 8.6968869310638 8.5742386213523 7.6955863339939 9.5009046830084 8.8186554063191 9.9340996329193 8.5882846692659 8.875855818211 8.2275682513618 9.0884640671105 8.3739923420288 8.4395212485737 9.2014794177193 9.0707844264251 7.8053488395778 6.4855078454152 8.08809494494 9.5499779150431 8.8056623802183 7.8329616169026 8.0686780879607 8.0526475613816 9.5093902779904 8.8188662395776 6.2044129262701 8.2574236483643 8.2639479727246 6.4531697320921 8.0482453415589 8.917967757844 6.4637331710649 8.0050838190039 8.3076462299124 7.6046092813749 6.3635547276701 8.0891329533526 7.5836542761944 8.5711398707175 7.9734275706187 8.9245068336552 8.344514206654 7.836870073461 7.5158469618797 8.2724476972941 8.9040726600253 9.8194794773034 8.0222211258214 7.6896017403047 6.8368744360224 8.8298977738469 6.0650747023625 8.1958031004589 9.2603056563516 7.4762680520233 6.609206828665 7.3401979883287 5.5467846531776 6.1589035709583 9.0692344396797 7.3175799313656 9.3879005422439 7.4512455831502 7.0964792110444 7.3015948833124 9.4165007915156 8.2805094743309 8.7363426504596 9.4290235738253 8.3861675115193 7.3264448232885 9.3435869258502 7.5869208484349 6.030382912966 6.4682841857066 6.6936307421663 8.4651594513022 6.6487546664689 8.9566562633954 9.0413435850546 8.829973038617 8.9615991645929 9.5815588957683 8.267218299534 6.2528792193246 7.9013222907518 8.6895190059278 6.0738656864787 9.7392083658409 8.7353908160805 7.6209736337533 9.6016698173222 6.7822724691257 9.1171085994011 6.3306460235648 8.9370270819368 7.1188394239632 8.5753213391967 6.3949530320712 8.3468851936822 6.3322094059819 9.4335475098537 5.5639242786413 8.6695068665999 8.5802865213003 5.942059314103 4.1003598633754 7.0331268812506 7.9969214333194 7.7622861283008 7.0273810107345 8.6177664201327 7.4851892718087 9.2617464481408 7.1387362795632 6.6830143777103 8.6342231703449 7.132228831775 8.2479335385529 6.5537730349565 7.1913364183208 7.909017289987 6.6957584938298 8.972136336611 7.0189004956603 8.3310903444662 8.8577217113825 7.3733916659969 6.5425537469699 7.7332553781718 5.6980284500061 8.4020379812489 8.3906283140918 7.6118640887241 8.686318803876 8.4575608392189 5.2221693453272 8.2909588103709 6.4523305704771 8.1751742303225 6.4037536288867 8.6455617235581 6.3569623113157 8.021113488913 8.1784253243925 6.3850110783364 7.5695290899926 8.1514059328439 7.8560791563856 7.6107989648182 6.9724048636166 5.7937015650885 7.1355771211255 6.6417563760661 6.0602418755503 8.2761340320022 6.4922197814252 7.778839825792 5.1047866986221 8.392547881105 6.0631133944606 7.9224054542303 8.4940838142152 8.5042728579644 7.815483216139 9.1978852517765 7.2927017908895 8.1218591500675 7.556749658169 6.7962677217088 5.6316403617526 7.441513752872 5.9490943034132 5.375115846534 6.5274870497237 5.7588139044152 6.7764495351168 5.6337276511152 6.1934653169959 4.62721534449 6.6085921693245 6.3235199011355 6.6358614935112 5.909960752771 5.9240361082188 5.3509813576919 6.3094296530806 6.4082275036442 6.7125328693259 6.448124709446 5.6705879967073 6.6961857877262 5.9536235274377 5.8762533369367 8.011410664538 6.5290534162028 6.3068113859654 6.3565570069879 6.2266538837292 7.1130660488837 6.1294747033379 8.2056419722944 8.8769834995814 8.5697366999875 7.8668541654006 5.9300114540566 7.6136576266543 7.2499934605552 8.7186874638471 6.745704126299 6.0176346050218 8.3935255387505 6.8182627977199 5.7848570186949 6.87053640563 7.6190797577589 6.1124265294884 6.196377383794 6.8636048870845 6.2870890923561 5.0474500591612 6.201011202292 5.7135750758779 5.8132329361954 5.06225705429 5.0126790387378 6.7701453869358 5.4094529545826 4.6528290813915 4.3505256645997 3.8245713523493 4.5424348862998 4.8403361078502 7.4655902127273 7.6841707551368 6.837120542727 7.0365139890629 9.4373285811827 5.9957095964623 6.5838056028137 6.277498315364 7.8115621843841 8.4423285420488 5.8565142083043 6.0288698514247 6.7377633940826 7.9412891224015 6.3171747919559 6.1826872362204 7.7806959302324 6.5045226182981 5.2643204638007 5.7497752405363 6.055098965778 5.5130131191203 4.7405475635286 5.6393735679526 5.1068269162676 6.3295791841426 6.7958927573314 6.6945031679953 5.392755830199 6.2835014179688 5.8508608016144 5.6380954701008 5.3449128034192 5.4868407186847 5.6466599597854 7.0838627411226 5.6909047779791 4.0775343205909 6.7503324410996 5.9342486879604 5.1218041974078 5.3120972606353 6.1181537026113 5.1368666360045 5.029215234781 6.5124408489012 7.1453880826462 7.3097991580758 5.0271269634782 4.1479515407835 5.515567695507 6.5359363466237 6.5607907673745 6.6266379924416 6.8431277576244 5.8758257765069 6.1175233472979 5.2085479346216 5.1559232979363 4.6457528574137 5.1416579465705 6.0356779305394 4.5558834909264 4.0772420049061 5.2978293128905 4.4424830315475 4.8026009076126 5.4191777823672 5.0393767216741 5.8163227146935 5.6525552917512 6.0306175578558 6.5790467921807 5.7543817939885 5.9567209980446 6.4942091280225 5.3225073249934 3.419552589533 5.7443106022268 5.7202059464906 6.4044306989721 5.057194662835 6.5271964400777 6.1977149882051 6.2197090010491 6.1441985943771 5.4080154859217 4.8042043433057 5.861723787022 4.9438093970416 7.0896249675033 7.4255757197665 5.3142905929796 6.1596599173163 4.8407979886173 6.2969183889326 6.9150880258622 6.9931037360964 5.1704949705254 5.5587525356175 3.883416737123 5.3028501515435 4.828474879508 6.9811107136304 5.7360894210941 6.1006268258092 5.2268956136734 4.6527744367368 5.7364192613399 5.1695052437965 6.029345505899 4.5690972618532 4.6277725084501 6.4282570741013 5.3520273429927 4.7724895566925 6.4429032430162 5.462443548252 6.2801824769998 4.826583234514 5.5611820793034 5.5171413828809 4.8683679331547 5.705104039395 5.2079064561101 6.8615754220065 5.9588688959748 5.6791365919055 5.5361321198654 5.7955693027559 6.3741949505143 6.4708723289052 5.7657408059972 6.6347315879665 5.9411759996171 4.9700008941913 4.4694243447069 5.0102772242644 5.0113983765693 5.2472878857236 5.3741094061661 4.5640032425137 6.0610109625192 6.568095036697 3.4473798480914 4.8416631964925 6.0606684529922 4.7075941230019 6.1551727965209 5.0847369477491 4.9422032722644 3.9991921367386 5.3523561288748 4.0192445457467 4.2092960068868 5.144323013917 4.6571681598965 5.1291397305549 6.041076468603 5.2401080782605 4.2035593307242 4.3948225728676 4.9008142480495 5.3406336314274 6.5112480