# vtk DataFile Version 3.0
d-2__ created by libgimli-v1.1.0
ASCII
DATASET UNSTRUCTURED_GRID
POINTS 570 double
14.5	0	0
14.25	0	0
14.386963504964	-0.201738469428	0
22.399299936458	-0.310870122736	0
22.129824335287	-0.229914148082	0
22.126320781198	-0.518791771445	0
8.472303742627	-0.591754876635	0
8.780507935475	-0.76092407121	0
8.82173151259	-0.349253271447	0
18.663262297679	-0.667179415955	0
18.934786529245	-0.453308328646	0
18.636898038907	-0.29588182328	0
4.016904362632	-0.85330676142	0
4.076038737616	-0.331410355179	0
3.713721571226	-0.470767763626	0
1.89953779852	-0.269343012166	0
1.633800503821	-0.203067612233	0
1.644492760828	-0.441295523531	0
4.368408037607	-0.250833874131	0
4.337474161742	-0.544420985055	0
4.67745607622	-0.378433532554	0
1.406172533733	-0.772361039307	0
1.913288206557	-1.218576310882	0
1.90687689783	-0.651895683444	0
2.5	0	0
2.25	0	0
2.347047126858	-0.185539804102	0
1.374000926997	-0.300418771701	0
1.25	0	0
1.114902662369	-0.201591505098	0
1.067401015567	-0.470108640981	0
5.75	0	0
5.699780065382	-0.324747799653	0
5.924584257371	-0.172748359932	0
0.883560935405	-0.231136840652	0
1	0	0
9	0	0
9.117836368049	-0.253904480787	0
2.625577516194	-0.346770599322	0
17.859079774019	-0.943547525024	0
17.535029634209	-1.703182852412	0
18.338018094476	-1.366069799339	0
19.932263871771	-0.826489183604	0
19.881635677668	-0.346204516721	0
19.622287080959	-0.573770479943	0
1.5	0	0
1.75	0	0
23.25	0	0
23	0	0
23.109690227386	-0.220340974338	0
2.75	0	0
2.142562771237	-0.172460438312	0
2	0	0
23.332392704446	-0.202507275941	0
23.5	0	0
19	0	0
18.75	0	0
18.888143078348	-0.195773419804	0
2.90152418742	-0.185685383897	0
7.612175045312	-0.180627982114	0
7.527150943175	-0.401430797998	0
7.881917737402	-0.30462800112	0
25.630635194756	-0.512020961038	0
25.243766894324	-0.80097755811	0
25.758031115142	-0.952821630144	0
3	0	0
28.84859809239	-0.201276387394	0
29	0	0
28.75	0	0
4	0	0
3.835807353334	-0.199536243303	0
3.106904732949	-0.178783649348	0
29.25	0	0
29.092446172194	-0.305987136665	0
13.5	0	0
13.667851890428	-0.185102765244	0
13.75	0	0
3.75	0	0
14.407363653886	-0.441423674912	0
14.125469935998	-0.279652141152	0
4.25	0	0
5.061980176718	-0.407989246181	0
5.335512032876	-0.269401530321	0
5.113979852892	-0.173834924157	0
11.882046000841	-0.812345557852	0
12.478640631525	-1.146569360669	0
12.244190771573	-0.565936619511	0
3.633270844505	-0.195395238442	0
14	0	0
18.378272976509	-0.514977451159	0
5.5	0	0
9.619519097921	-1.16461851757	0
10.030576753886	-1.587265312651	0
9.961661342999	-1.070235523667	0
5.25	0	0
5	0	0
13.157975569138	-0.830425793913	0
13.83833027638	-1.238601004239	0
13.671302359608	-0.710707966059	0
11.325917093147	-0.8366783502	0
11.612143285947	-0.506264798476	0
6	0	0
7	0	0
6.83842404292	-0.188923754932	0
7.11236984822	-0.391746146843	0
6.631875629497	-0.169178192832	0
6.75	0	0
3.21002197083	-0.595267231049	0
3.445510026908	-0.608065324465	0
3.362318141622	-0.306501255187	0
6.120159502895	-0.164221934939	0
4.538525595924	-0.906226152762	0
13.233775457127	-1.737244787017	0
4.5	0	0
16.138065841822	-0.472802517973	0
16.126746690205	-0.221608117926	0
15.859319180798	-0.326402762318	0
26.080401003391	-0.227842452866	0
26.25	0	0
26	0	0
3.019224421113	-0.401469974918	0
8.234901607028	-0.35771789179	0
8.518285578354	-0.242327591839	0
8.328777073389	-0.153008859619	0
7.25	0	0
7.400656881666	-0.195280611572	0
7.5	0	0
5.385509485898	-0.709154879541	0
5.948697127931	-0.745234910621	0
8.75	0	0
8.5	0	0
8.25	0	0
2.214249105773	-0.404278959534	0
2.896561357202	-0.792481120253	0
9.25	0	0
4.920911116561	-0.192028847294	0
9.651670336652	-0.200847798694	0
9.849824537955	-0.19917205686	0
9.75	0	0
10.095049354068	-0.315754204277	0
10	0	0
3.25	0	0
6.738406513564	-0.710129601907	0
7.121614580011	-0.943026074581	0
11.345829942703	-0.314788260019	0
11.25	0	0
11.104427225455	-0.188863495516	0
6.052412255932	-0.372556729023	0
6.373371846535	-0.274163514827	0
10.25	0	0
10.380281579003	-0.241092027437	0
10.5	0	0
10.75	0	0
10.909079077441	-0.189427130481	0
11	0	0
6.25	0	0
6.5	0	0
4.75	0	0
3.5	0	0
10.672815698565	-0.318467932684	0
10.772487906066	-0.787092734739	0
11.020900486567	-0.439266778492	0
8	0	0
7.75	0	0
11.5	0	0
11.619450354736	-0.231443672836	0
11.75	0	0
8.139317726831	-0.163309591658	0
12.25	0	0
12.158949464947	-0.235415698299	0
12.412455385193	-0.275030800337	0
12.929165084344	-0.221336108042	0
12.686337592177	-0.258437422252	0
12.900449535554	-0.462768612232	0
12.5	0	0
9.405755833308	-0.325979504745	0
9.111697192308	-0.594170467817	0
9.457257345083	-0.753685223931	0
18.101369157139	-0.618560521812	0
18.336839281097	-0.861122419318	0
10.385948631267	-0.570640149046	0
9.5	0	0
13.411260455969	-0.342646276848	0
12.643108055516	-0.590179775368	0
13.137744715761	-0.195204172124	0
13	0	0
21.25	0	0
21.358341816502	-0.326561417551	0
21.5	0	0
13.816492716597	-0.40394453634	0
20.25	0	0
20.423452336785	-0.313445603959	0
20.5	0	0
17.789350393153	-0.390447709085	0
17.987794057246	-0.401472255242	0
17.881276545163	-0.206424156589	0
19.564465692234	-0.270867872644	0
19.290725118801	-0.49926248604	0
16.392319441256	-0.29915360323	0
19.443730892406	-0.923508713428	0
20.457987075478	-0.803203365193	0
20.167450719332	-0.505159975143	0
0.103762538371	-0.253013629949	0
0.267057015134	-0.483604909932	0
0.374713194419	-0.2320817565	0
13.25	0	0
17.415572543912	-0.230682214253	0
17.5	0	0
17.25	0	0
18.108153655084	-0.208141099276	0
18.25	0	0
18	0	0
15.75	0	0
15.544586046819	-0.246453491997	0
15.122708481244	-0.193620038745	0
15.25	0	0
15	0	0
19.75	0	0
24.149237782749	-0.319013340846	0
23.842766599446	-0.577371105011	0
24.183995039967	-0.73159476451	0
13.871646321742	-0.17394291424	0
23.862588150518	-0.245417872715	0
16.84024277193	-0.203626765466	0
16.704049384397	-0.435508179396	0
17.112673188265	-0.38804641709	0
24.75	0	0
24.832880292394	-0.290571430318	0
25	0	0
16.40158555625	-0.755912194683	0
16.850299990829	-0.757941865332	0
17.75	0	0
23.567455674596	-0.325197491724	0
16.25	0	0
16	0	0
22.645812614293	-0.197864648876	0
22.75	0	0
22.5	0	0
16.75	0	0
17	0	0
24	0	0
26.914424714815	-0.337869958787	0
26.621963281699	-0.624626679172	0
26.977877660759	-0.778408201088	0
26.622424322919	-0.264588309935	0
19.34462271879	-0.199329831305	0
19.25	0	0
19.118057075065	-0.225686869553	0
19.5	0	0
26.75	0	0
27	0	0
27.5	0	0
27.604422363523	-0.298869962794	0
27.75	0	0
17.650384190064	-0.227839036584	0
18.343198956448	-0.236734208617	0
18.5	0	0
24.25	0	0
20.143897114391	-0.233773711865	0
25.5	0	0
25.25	0	0
25.344389320279	-0.31693710653	0
21.059546193318	-0.24845941382	0
20	0	0
25.842927934822	-0.248287716678	0
25.75	0	0
25.613904645132	-0.216025146631	0
21	0	0
11.763551406169	-1.481607093928	0
30.981104050195	-0.5526690913	0
30.873880294509	-0.217692518774	0
30.706626759758	-0.34945139905	0
20.75	0	0
20.85240828135	-0.178025243856	0
23.75	0	0
20.66289882074	-0.189089155251	0
30.204950808504	-0.791758966623	0
30.715535843381	-1.149995259266	0
30.543724897762	-0.572259098027	0
30	0	0
30.180216671806	-0.343473673313	0
30.25	0	0
23.229584388362	-0.458653998547	0
29.5	0	0
29.623391954444	-0.322069028408	0
29.75	0	0
21.618913855927	-0.233585823579	0
21.75	0	0
29.348490380579	-0.521100538161	0
29.36294710412	-0.230601226356	0
22	0	0
22.25	0	0
28.25	0	0
28	0	0
28.129259193923	-0.314252106503	0
28.44374413871	-0.484576386004	0
28.100199615755	-0.812038297775	0
28.649230646972	-0.871769248311	0
28.618403654115	-0.227691192115	0
28.5	0	0
28.387848605749	-0.205892081491	0
29.054768525933	-0.708603081552	0
29.344906532636	-0.846887322836	0
26.327430876245	-0.35930637997	0
10.349120516034	-1.04150119828	0
10.894920134778	-1.514321070539	0
24.59640839418	-0.191760546865	0
12.75	0	0
24.5	0	0
13.102881121377	-0.411296235356	0
25.099388239946	-0.214879887129	0
25.97986022697	-0.52841375324	0
24.398993403151	-0.196312410538	0
17.860840746535	-0.577367743328	0
17.566481510048	-0.529340016102	0
26.5	0	0
16.637148248735	-0.188015807345	0
18.183918302467	-0.396443618316	0
27.159348252167	-0.205297590358	0
27.357530053515	-0.198815038154	0
27.25	0	0
15.060354649709	-1.112587998155	0
15.51532665618	-1.043792149387	0
15.178150912169	-0.713100616689	0
10.051363365948	-0.719159376333	0
14.661248691948	-0.27865166374	0
14.75	0	0
27.868836823455	-0.217301839861	0
31	0	0
30.75	0	0
-0.020273477909	-1.415389842481	0
1.054972770973	-1.487485199502	0
0.512583677021	-1.0438154777	0
0.75	0	0
2.361419414365	-0.794513604096	0
29.890297721653	-0.2433406165	0
30.473599299501	-0.238575611274	0
30.5	0	0
30.660802173874	-0.161931182737	0
28.783812899585	-0.467926883932	0
4.937022539393	-0.72440615077	0
6.696914540879	-0.380672503721	0
7.434272221796	-0.695675918868	0
15.339606453815	-0.166204802571	0
15.281953315711	-0.388999642276	0
11.893544445085	-0.335972898148	0
12	0	0
9.753796445798	-0.478866225926	0
7.720012958977	-0.638314519759	0
21.871398197179	-0.313006985103	0
21.615176662754	-0.521922347305	0
21.856785525528	-0.665128848631	0
20.792152536902	-0.448319093295	0
21.109577821412	-0.527879642114	0
21.360297691811	-0.734200004244	0
15.547854961707	-0.580173571081	0
24.496861814148	-0.467031445896	0
25.067351422649	-0.463427753535	0
24.81263825963	-0.684738154192	0
22.865620821195	-0.218348593093	0
23.443705587002	-0.773171720633	0
27.277617447467	-0.489224417775	0
27.863714790534	-0.471681393437	0
26.239117668995	-0.863279739365	0
29.896797054636	-0.547765129844	0
29.612773839625	-0.699757135752	0
29.867172666547	-0.87444432816	0
29.610354212963	-1.521444655905	0
29.59548165142	-1.071765512911	0
29.115129171034	-1.220660174798	0
31.345359428525	-0.458952144926	0
31.144859415042	-0.241304201582	0
15.919565295974	-0.746550096707	0
16.063006820294	-1.289595303187	0
16.5	0	0
14.900855313538	-0.178071167744	0
14.161016743654	-0.72559708689	0
19.011498044983	-0.834202892304	0
16.760433281999	-1.263698818643	0
17.280361389946	-0.931704507314	0
-0.627742252535	-0.296285438777	0
-1	0	0
-1	-0.5	0
0.625738545692	-0.228405936136	0
0.5	0	0
3.313957665883	-0.865581185485	0
3.619156095452	-0.800599314657	0
[...]
CELL_DATA 986
SCALARS 160.00_1.04 double 1
LOOKUP_TABLE default
10.98676772896 9.8597597223007 9.1759378533011 7.5812443757283 6.3823733512832 9.0211718855668 10.008889892688 6.4358503405182 11.663452948212 9.4544254256866 8.2465913411724 8.1615759134794 8.6624315589305 11.940065668209 11.174660829583 8.9114776823299 4.7407313966712 9.3145342745107 8.4946914849141 10.354808542021 8.7661277876104 10.863909203604 10.525899721429 9.5938873907483 14.494517283259 8.4568274027386 10.592591938156 6.0955472418818 7.6501984738406 9.904564484441 8.6071410203088 11.56761958626 10.723937150997 13.657603581169 5.3927972527565 10.907203564457 17.284919792753 9.9099174468458 5.4854591329947 5.7576507769651 11.163248951565 6.7750282504858 10.460576975759 4.7820348510891 10.25578563192 8.4687988357065 6.8537950184357 7.4750447507494 7.5193824863195 11.182485058429 9.0141153873307 6.4529203482744 6.6793596020222 12.005104943833 7.7212647727699 8.0628965972834 4.9856477149449 20.205391807759 9.3446818491374 6.5409124742118 10.764542443989 9.4368449812142 12.469162986099 10.16871552162 16.028102210567 14.498636035488 8.8871533851458 8.1745349136921 9.8735934624469 10.749011316593 10.529294907644 12.817018106887 19.411679212937 12.305063589363 10.927794665444 8.3685213650924 14.204627215399 10.457596494804 14.027742643484 10.91360760999 15.875455114003 6.3260368290896 8.0086088485448 11.5749258105 13.820877927044 22.798420041745 14.521606006517 11.401003347246 15.112477806279 14.163996899144 8.1538554412635 8.0669396258863 11.785056790209 17.0195132066 10.142548531552 11.5375669337 19.998338143514 14.358463793557 12.714805344363 7.0636412462497 11.674505328056 10.865834978893 8.1793451774171 15.400480247468 7.2068115734264 6.2015308687378 9.6892080648245 7.5268944025089 8.8402361034998 9.6619800948307 7.8138114949024 9.2926514292223 10.003269883044 7.8906863053901 9.9325646602919 9.5819363864638 8.9377328277897 11.035933108002 9.9376157014623 9.3188041886081 8.2955075117904 12.16453082471 8.8541650636296 7.0862577446369 8.8776819599135 7.1119183828771 9.0540411634269 6.5871099420291 8.8955031204326 8.9898274394475 7.3231570704316 10.168411450371 11.215972973306 8.8991645779154 7.3515621478308 13.289718728453 8.7015251628576 11.770942322163 11.507613931374 7.9675072856485 12.577075909684 9.1273742965826 10.703659663234 10.531163448073 19.396704556154 13.826066095092 9.4828952103264 6.8201672191256 9.6984559153596 7.7175198716218 9.2581489530025 10.939628487449 8.6838136166972 7.7974440606245 11.55201961089 10.826962982344 11.045879648977 7.9632365944491 6.9223305633883 8.2097066094157 10.765853383873 12.983135829122 7.9018396519625 12.663132156588 10.244989539892 8.0526003740733 5.6944075936661 7.761721030959 15.466505417045 11.878426388488 13.719848088652 8.085603705665 6.678048330136 6.4212090298015 9.9191917182471 10.024946583964 11.27769694714 9.8987438267098 8.9449283596192 9.8170317433984 13.580047920092 13.84143496735 11.078360201282 6.4193715428755 7.8273188815123 13.570466366292 11.746209604336 12.558998915175 9.1069516677476 7.0335385566387 7.9986955211577 5.838299095797 11.016090017594 5.9292765139863 11.364383876246 11.468758776732 5.8569640044362 9.4720772038459 12.583115884398 9.1473512696587 10.761181262537 9.0777684324742 5.8510665665151 9.3105090347596 9.4414600100782 7.0167181528091 10.539391691868 10.087017734266 11.696557402312 10.353638588429 8.7130884936179 11.544225317745 7.9803206389246 7.2906948869198 6.6563922365462 6.3105816481792 6.1778771126535 8.5495165212825 5.4988042179889 9.3466872155974 10.234360584867 11.71917209046 10.975432131918 10.523067265445 9.681190069532 11.170382418494 10.630148276586 9.147098174474 8.6775381802892 9.2023696979271 9.1602719229606 5.0584484765109 9.8945749484206 10.072350014881 9.4394892197738 8.771466373606 8.9441709443463 7.8981263094861 9.8911007617631 9.2296383526952 6.7478250713115 7.4085316224006 10.879646025718 9.3764333506743 10.949949346918 12.397954500921 5.9964436961395 9.833176023011 11.190916839598 6.6205730621732 7.01909602781 8.3922002366695 7.5286749277276 9.4134487611708 9.6472432369781 6.3666839456196 8.6979214862681 10.661878250848 8.2921185348248 8.1462960573094 10.768899602102 13.220745937967 12.117634603745 10.209788350198 7.7456630982533 12.575157190083 8.7234626092291 9.6293939345318 6.1640612470398 7.2233524974074 10.084611264648 10.545113662617 11.238257766308 14.832151808415 12.74104850558 12.69542987181 8.6369666530824 8.8753647111701 11.738311461974 9.3118703358527 8.8114232488737 12.711435224851 13.385338976844 13.767861330761 6.3676150897461 14.625899489962 9.3157722321836 11.903500160188 15.997798817221 10.832738530291 9.5196376126763 8.897355772083 7.8669758873602 10.347102413484 9.1026191457667 10.053481758434 8.9197933697925 10.310169315014 18.100942200834 10.525962902982 7.2098924805516 11.407179221018 11.794583074488 10.747557344421 7.769353631702 7.9630131168697 10.131867669475 10.477838514306 9.3335359336222 10.21576059614 9.2418828387343 11.651789285105 6.4319585893657 8.8739190896375 9.7633965437879 7.7776279146213 11.897766768913 8.0341337628215 7.8975205847302 9.3389735752638 8.2882086693068 9.8103558495633 6.6028794307974 7.4473558480551 8.7721489839408 8.2967523708006 10.657931451624 7.046519000279 6.9628945272767 5.3699346904592 6.4123127084515 7.7051730734057 8.8296988711563 9.5452868167299 8.468143119977 9.5810219004991 7.0766397624224 15.799530725207 8.21331287936 13.158840536385 5.8300112996519 6.7438439412823 9.4290611651067 10.817878815516 11.916662209933 10.490900155086 12.432430655127 13.503512967203 11.57351424149 7.1292639117646 8.8620903156131 7.2592781089807 8.3618258543255 6.2430798478295 8.2276508195525 6.2022656607181 6.6547520982418 7.4701773742145 5.4969013278571 9.661404041525 7.6856422436438 5.4995301782725 8.269278981769 9.6741685980434 9.98714439903 7.7135278763292 6.525342641107 5.7159607801876 8.0278576596059 11.472142013478 10.486935802403 8.615436519787 7.5169142355993 6.3648470222874 8.9201374487425 9.6774311561877 8.2160638118064 12.9088664274 11.296547593 6.0960819812492 5.6052701215097 7.0142357518417 10.333748913391 7.8070050336189 10.710421162126 11.493988243076 7.2357248793792 11.197724720839 6.6688391939117 16.942469940762 8.5679063001385 7.3271477786191 6.0912277871017 9.2095601001748 7.2516326668526 10.823155676774 7.3031532791027 10.075114917617 8.0386286751821 9.2942637129289 11.193271237699 11.289199578292 9.6050457193387 7.7717043974789 6.3269972609063 15.701289502977 5.9509514931033 8.6422052401062 10.265648580179 7.5336282581805 12.77066959645 8.5684203520143 7.323411803682 7.6513766338944 9.5290776975343 6.8835273743991 7.178436603028 7.6611166083289 6.0933779626333 7.5721318436014 5.9948387263138 10.850145806106 9.1843962882033 7.0400005317017 7.1925775884595 7.8654488236143 6.8852508492988 6.766856563991 8.0843025447598 6.6147389510975 7.3342863580824 11.315970226614 9.4307082505974 9.146101024617 6.2095017376803 7.3068282462256 6.0491475965487 7.9718000381665 5.0389132631703 8.1297043836431 5.2917170669316 7.4708048279912 13.651099550972 10.380361296993 5.9003631570112 9.74572642567 4.6270075804013 7.5926265486532 6.6833709602684 7.281044437518 9.9051650366846 12.333701563251 10.978972995476 8.2720252769916 5.9576397755069 4.4411358557117 7.5160099658646 10.542179698504 9.0023453915666 8.0575535045597 7.602799583295 9.1755728226799 7.9520255957768 6.6674108545798 6.2319029526548 4.8938088223835 6.5851552710405 6.6701108141353 5.46707359029 5.3559242406948 5.6405743111655 9.6241938277826 7.1214057509279 5.0126030038089 4.4965578320002 11.338345058588 8.471253442875 7.6472092855446 6.8838295247784 5.943981646251 6.762757397229 5.575896697877 5.4483517603794 12.456753210148 9.3570220918832 6.3553956739689 7.6994610210865 8.5121650742124 7.9710746738868 7.6609112292862 5.121385290139 9.5041700569843 10.978692206143 13.888447477592 6.7482683656764 5.535286358841 5.3224103560015 4.0795946597944 6.985708358139 9.2333722698798 6.1374571025059 7.05529278337 5.2908682527942 6.6609751292243 7.8168039230731 10.466263923016 5.4919868572728 9.3338505088302 9.8083766741847 4.2986311018723 8.7453567621473 10.668800466471 8.8909397114278 5.6086310334116 7.586790833867 7.7316961272199 6.443945283732 6.2440972960201 5.203423076835 9.9900229449334 9.4647931973197 5.3754786236106 7.6901391976636 7.6063045551311 6.1308490286766 5.6898405691018 5.0036595380093 9.3462457680675 8.2285182214024 5.9288574538061 7.4350383127789 6.0510852753285 7.8414611513473 8.7423955336395 7.2412456236986 5.9599218029683 10.393769529117 9.0060547638621 5.4860486488575 3.9586485555259 8.6307939338676 6.0671704874724 8.7791610694215 8.8752759417615 5.8242226373231 9.9788393143285 4.1504879973628 6.7051535352364 3.8485702204991 4.7245414427395 8.0705757453032 5.6250465918373 6.0124583166503 6.1156821898816 8.0185029982026 7.3989486058183 5.7738208658315 7.4811672422969 5.744011654993 6.6569596468893 6.209361574895 6.0624071128675 8.2852987505929 6.0954954048769 7.3947205501649 10.750748062753 5.9026922729463 4.9253638179223 7.2029394576265 6.8561359870311 12.536998282408 6.6728043604814 9.1469545165145 7.1319279167667 9.8354361760279 10.016287327675 6.1032980532217 4.2383344392543 7.9037126367414 6.7529037479742 6.5970825732983 6.8099045984747 12.597184445181 8.2183579471793 5.3426366073877 8.1646156417347 9.86537868475 7.7992967575891 7.8694707777767 6.8277786032785 7.2361096333793 6.3640915527473 4.4313949977738 5.5859623357795 4.4637224281518 7.2999793753992 6.2239560163643 6.1792016863512 5.1066108051472 5.9778506746855 6.5103671269301 6.7504583441906 6.6903363107062 6.1851442754117 4.8644320902648 4.1044454055235 5.1292400257281 6.9502170880695 9.2440124405192 7.684556281192 6.7267835501393 6.8794755455749 5.4525760348694 11.350768475575 5.3211045618861 11.439995421962 7.8795761082951 4.0344089538411 8.9433065857481 8.0651366636905 7.6643166380623 7.7517382875525 6.6770785323102 5.6211092749943 5.5188105118436 5.3842080028165 7.0074983552522 6.0687188160887 4.359977359719 5.262949610759 4.4577404928231 5.7635134092339 4.9033580270977 9.1212494883721 5.638325562827 7.3278090317165 4.7885022624253 4.824900086076 5.2059652361548 7.4068311605656 4.4500927021131 4.4811020380876 6.76980501117 5.1405454601979 3.9367062849434 5.5746781646181 9.3189778368903 8.5711703554126 6.9489867661411 4.6025764705225 5.1860000667981 4.4159582517371 5.9218906662484 7.0338232124195 6.1919115602709 6.7530423970503 5.9348858222132 6.1370258312021 6.1432350565082 5.9716016335796 6.3192111413679 6.0417019745638 5.677156230654 6.0466899637029 5.9481284421491 5.830217239548 5.9324742039474 5.933360983289 5.9243292785358 5.9438910189173 5.9342154733711 5.8726342752505 5.9254281955562 4.2836738414955 6.0066193211976 8.0177276306216 4.7727469448693 10.508305930908 6.5544050859956 6.0992268036275 6.0551445281276 6.4346159794109 5.4680336624991 4.6294392894688 4.8314574435084 4.6098827527065 5.5119217972437 10.205963568117 9.428884515348 9.4090590604205 9.2809217389384 5.3832578340672 3.7381372441866 4.9713510762054 5.1811551722419 6.2444923158413 5.5082938760935 5.8050555246072 4.9376500184651 5.9382482250764 6.8751685744912 6.4162602005799 6.4331895173615 6.214225864316 6.1711601165554 5.9318427337723 5.4531056247733 5.9185545218877 5.9059698140094 4.7515569995494 3.7542542882415 3.5165715321005 4.9468912453965 4.320028686665 6.509091228104 5.8568086542136 6.9200221758279 6.3644150779361 17.789788539425 13.5964581507 4.2050823874656 4.6080655760515 7.2015929256189 5.1458395029945 4.0105532428064 4.1666444819172 5.2848625870799 6.3814315595353 10.498655280438 6.4015616441864 7.8177764337425 5.4547773540688 4.9781373905442 10.337267056044 5.0295895177301 5.4414560474068 10.050866596611 5.3374464147286 4.3235414359175 6.9044937880301 7.4843356448378 5.1543009764441 4.4073234491724 4.5458066138015 6.3470787991593 4.2100279854997 4.994113122806 3.8451229206831 3.9228739459952 4.3454270231541 8.609277252436 4.8423366279218 5.3323126713066 4.8006739936395 4.8776589291517 4.5712196491921 5.5418072796492 9.4793860015185 3.8993235970899 6.416858979627 3.6752038188889 4.0445976749751 4.9858519093301 4.4491580413857 3.8903372246704 4.4535886076688 4.5240058368747 4.3799213046216 5.082417176353 3.9582218550389 8.5060725420266 5.1691151379758 4.005166472955 4.4180443524656 4.943844596782 4.9375085100251 6.34230145293 6.4514192217253 5.7194903328036 6.5592652791702 5.6842595696978 6.0583947292501 5.4300446319014 5.329848977183 5.7736004452488 5.6728901685865 4.8429712208366 5.324044515969 5.6617496276626 5.6224139597337 5.2515656629441 3.6106233720927 5.2475307328488 5.7264687433586 4.8139923374141 4.6067218704728 4.0330100870512 4.0688765128977 3.9863406459618 4.8545385133934 4.023876326655 4.5869387752057 5.5394557444129 11.657434067567 4.5557850402717 5.1907496205117 5.0396737386458 9.3342727376152 7.7556304264428 3.9571275044217 3.8939573041918 3.7847297814699 4.7453802057619 4.8881926551998 17.386234143946 3.7977198400695 4.2909965430977 4.61629413809 3.6710828951433 4.5283390211625 5.4379489919007 4.6383209591264 4.6389529533327 4.0953079026651 5.2162886239825 4.8098580538589 4.1589244370154 4.8387383467277 3.6905883395233 4.0382969799633 4.5043542495396 4.4238020884939 3.7080177602031 3.9424187614657 3.6721723960328 3.7910043413463 3.7638283956109 3.7926040828219 3.8762098179272 4.3809397443334 4.441224951942 5.2063266744885 5.3615238913808 3.8305896409607 3.6792927571507 3.584228236783 4.4239745298036 3.7032172183817 3.730978740306 3.7569945872717 3.7593390562601 3.7246090900836 4.1775204466264 3.9438475201497 4.7413796112806 3.6428921544946 3.769038748678 4.2213486649444 4.1494118724033 3.5405822739996 3.5065982517868 3.7847227694157 3.8142761032436 3.6794279045791 3.7417616698753 3.5798363760709 3.6847325269695 3.8620726675397 3.6958133303519 3.9225278582963 3.7727302538484 3.7494632168315 3.5998602443005 4.3308058274295 3.6489828923745 3.7336946545173 3.6026683317321 3.4879831067766 3.4746951990817 3.5542048467273 3.6101667084809 3.8862855838731 3.9143144751913 4.4192083352789 3.6746928520801 4.0774350771037 3.6513889379204 3.6550102960433 3.8363353814789 3.9214765256402 3.7809413127401 3.713441960766 3.6796430840733 4.973673134393 3.9261329360681 3.9339118780379 4.1580786806937 3.8269089610934 3.5942274577339 3.5541908960642 3.5343026304918 4.2913499249383 3.5738525253114 3.8998557919056 3.7142592850323 4.5436612622037 4.0150394306086 4.2935262121028 3.6643824219857 3.5642603366143 4.1916999451242 4.4164434011192 3.7974229936202 3.7205702512456 3.9815030919939 3.6819904564121 3.972465859253 3.7423804012296 4.2879806135647 3.6669473829279 3.733132765299 4.4898056666571 3.7523807498609 4.4694210710399 4.0671290390646 3.8583628919759 4.3642832731907 4.5101516088197 4.166816379597 3.6808297438142 3.8248268121579 3.5336497269716 3.527434430967 3.7527690165881 3.7448261885331 3.8544387560293 4.4327231229547 4.1136836874962 4.1038688576319 3.9064828656638 3.9969785492423 3.9026146353896 4.276117561644 4.1416426946346 4.2150982785539 3.9053499326965 3.7100729918839 3.8750177462645 3.9567151767999 4.3135399738669 3.7922722916455 3.6432337537463 3.7437965184828 3.9567575734474 4.0998603159188 3.9906004596758 4.2580970153335 4.3063187242875 4.3150672817141 4.1815339072444 4.2071136321843 4.5251202639722 4.4244958468141 4.4183279447533 4.3424574656979 4.4778820214657 4.5307269921514 4.4495013691948 4.3763473206931 3.7156945222382 3.6107238224995 4.0360415832637 3.8587700524599 3.8015248627245 3.9381604182205 4.000890974631 4.3182395212457 4.1304835046771 4.1985427227812 4.3042946718857 4.1330890525525 3.9909007247654 4.1148747101781 3.8570585159781 4.0453995178746 4.0480448280214 
SCALARS 20.00_0.24 double 1
LOOKUP_TABLE default