# vtk DataFile Version 3.0
d-2__ created by libgimli-v1.1.0
ASCII
DATASET UNSTRUCTURED_GRID
POINTS 570 double
14.5	0	0
14.25	0	0
14.386963504964	-0.201738469428	0
22.399299936458	-0.310870122736	0
22.129824335287	-0.229914148082	0
22.126320781198	-0.518791771445	0
8.472303742627	-0.591754876635	0
8.780507935475	-0.76092407121	0
8.82173151259	-0.349253271447	0
18.663262297679	-0.667179415955	0
18.934786529245	-0.453308328646	0
18.636898038907	-0.29588182328	0
4.016904362632	-0.85330676142	0
4.076038737616	-0.331410355179	0
3.713721571226	-0.470767763626	0
1.89953779852	-0.269343012166	0
1.633800503821	-0.203067612233	0
1.644492760828	-0.441295523531	0
4.368408037607	-0.250833874131	0
4.337474161742	-0.544420985055	0
4.67745607622	-0.378433532554	0
1.406172533733	-0.772361039307	0
1.913288206557	-1.218576310882	0
1.90687689783	-0.651895683444	0
2.5	0	0
2.25	0	0
2.347047126858	-0.185539804102	0
1.374000926997	-0.300418771701	0
1.25	0	0
1.114902662369	-0.201591505098	0
1.067401015567	-0.470108640981	0
5.75	0	0
5.699780065382	-0.324747799653	0
5.924584257371	-0.172748359932	0
0.883560935405	-0.231136840652	0
1	0	0
9	0	0
9.117836368049	-0.253904480787	0
2.625577516194	-0.346770599322	0
17.859079774019	-0.943547525024	0
17.535029634209	-1.703182852412	0
18.338018094476	-1.366069799339	0
19.932263871771	-0.826489183604	0
19.881635677668	-0.346204516721	0
19.622287080959	-0.573770479943	0
1.5	0	0
1.75	0	0
23.25	0	0
23	0	0
23.109690227386	-0.220340974338	0
2.75	0	0
2.142562771237	-0.172460438312	0
2	0	0
23.332392704446	-0.202507275941	0
23.5	0	0
19	0	0
18.75	0	0
18.888143078348	-0.195773419804	0
2.90152418742	-0.185685383897	0
7.612175045312	-0.180627982114	0
7.527150943175	-0.401430797998	0
7.881917737402	-0.30462800112	0
25.630635194756	-0.512020961038	0
25.243766894324	-0.80097755811	0
25.758031115142	-0.952821630144	0
3	0	0
28.84859809239	-0.201276387394	0
29	0	0
28.75	0	0
4	0	0
3.835807353334	-0.199536243303	0
3.106904732949	-0.178783649348	0
29.25	0	0
29.092446172194	-0.305987136665	0
13.5	0	0
13.667851890428	-0.185102765244	0
13.75	0	0
3.75	0	0
14.407363653886	-0.441423674912	0
14.125469935998	-0.279652141152	0
4.25	0	0
5.061980176718	-0.407989246181	0
5.335512032876	-0.269401530321	0
5.113979852892	-0.173834924157	0
11.882046000841	-0.812345557852	0
12.478640631525	-1.146569360669	0
12.244190771573	-0.565936619511	0
3.633270844505	-0.195395238442	0
14	0	0
18.378272976509	-0.514977451159	0
5.5	0	0
9.619519097921	-1.16461851757	0
10.030576753886	-1.587265312651	0
9.961661342999	-1.070235523667	0
5.25	0	0
5	0	0
13.157975569138	-0.830425793913	0
13.83833027638	-1.238601004239	0
13.671302359608	-0.710707966059	0
11.325917093147	-0.8366783502	0
11.612143285947	-0.506264798476	0
6	0	0
7	0	0
6.83842404292	-0.188923754932	0
7.11236984822	-0.391746146843	0
6.631875629497	-0.169178192832	0
6.75	0	0
3.21002197083	-0.595267231049	0
3.445510026908	-0.608065324465	0
3.362318141622	-0.306501255187	0
6.120159502895	-0.164221934939	0
4.538525595924	-0.906226152762	0
13.233775457127	-1.737244787017	0
4.5	0	0
16.138065841822	-0.472802517973	0
16.126746690205	-0.221608117926	0
15.859319180798	-0.326402762318	0
26.080401003391	-0.227842452866	0
26.25	0	0
26	0	0
3.019224421113	-0.401469974918	0
8.234901607028	-0.35771789179	0
8.518285578354	-0.242327591839	0
8.328777073389	-0.153008859619	0
7.25	0	0
7.400656881666	-0.195280611572	0
7.5	0	0
5.385509485898	-0.709154879541	0
5.948697127931	-0.745234910621	0
8.75	0	0
8.5	0	0
8.25	0	0
2.214249105773	-0.404278959534	0
2.896561357202	-0.792481120253	0
9.25	0	0
4.920911116561	-0.192028847294	0
9.651670336652	-0.200847798694	0
9.849824537955	-0.19917205686	0
9.75	0	0
10.095049354068	-0.315754204277	0
10	0	0
3.25	0	0
6.738406513564	-0.710129601907	0
7.121614580011	-0.943026074581	0
11.345829942703	-0.314788260019	0
11.25	0	0
11.104427225455	-0.188863495516	0
6.052412255932	-0.372556729023	0
6.373371846535	-0.274163514827	0
10.25	0	0
10.380281579003	-0.241092027437	0
10.5	0	0
10.75	0	0
10.909079077441	-0.189427130481	0
11	0	0
6.25	0	0
6.5	0	0
4.75	0	0
3.5	0	0
10.672815698565	-0.318467932684	0
10.772487906066	-0.787092734739	0
11.020900486567	-0.439266778492	0
8	0	0
7.75	0	0
11.5	0	0
11.619450354737	-0.231443672836	0
11.75	0	0
8.139317726831	-0.163309591658	0
12.25	0	0
12.158949464947	-0.235415698299	0
12.412455385193	-0.275030800337	0
12.929165084344	-0.221336108042	0
12.686337592177	-0.258437422252	0
12.900449535554	-0.462768612232	0
12.5	0	0
9.405755833308	-0.325979504745	0
9.111697192308	-0.594170467817	0
9.457257345083	-0.753685223931	0
18.101369157139	-0.618560521812	0
18.336839281097	-0.861122419318	0
10.385948631267	-0.570640149046	0
9.5	0	0
13.411260455969	-0.342646276848	0
12.643108055516	-0.590179775368	0
13.137744715761	-0.195204172124	0
13	0	0
21.25	0	0
21.358341816502	-0.326561417551	0
21.5	0	0
13.816492716597	-0.40394453634	0
20.25	0	0
20.423452336785	-0.313445603959	0
20.5	0	0
17.789350393153	-0.390447709085	0
17.987794057246	-0.401472255242	0
17.881276545163	-0.206424156589	0
19.564465692234	-0.270867872644	0
19.290725118801	-0.49926248604	0
16.392319441256	-0.29915360323	0
19.443730892406	-0.923508713428	0
20.457987075478	-0.803203365193	0
20.167450719332	-0.505159975143	0
0.103762538371	-0.253013629949	0
0.267057015134	-0.483604909932	0
0.374713194419	-0.2320817565	0
13.25	0	0
17.415572543912	-0.230682214253	0
17.5	0	0
17.25	0	0
18.108153655084	-0.208141099276	0
18.25	0	0
18	0	0
15.75	0	0
15.544586046819	-0.246453491997	0
15.122708481244	-0.193620038745	0
15.25	0	0
15	0	0
19.75	0	0
24.149237782749	-0.319013340846	0
23.842766599446	-0.577371105011	0
24.183995039967	-0.73159476451	0
13.871646321742	-0.17394291424	0
23.862588150518	-0.245417872715	0
16.84024277193	-0.203626765466	0
16.704049384397	-0.435508179396	0
17.112673188265	-0.38804641709	0
24.75	0	0
24.832880292394	-0.290571430318	0
25	0	0
16.40158555625	-0.755912194683	0
16.850299990829	-0.757941865332	0
17.75	0	0
23.567455674596	-0.325197491724	0
16.25	0	0
16	0	0
22.645812614293	-0.197864648876	0
22.75	0	0
22.5	0	0
16.75	0	0
17	0	0
24	0	0
26.914424714815	-0.337869958787	0
26.621963281699	-0.624626679172	0
26.977877660759	-0.778408201088	0
26.622424322919	-0.264588309935	0
19.34462271879	-0.199329831305	0
19.25	0	0
19.118057075065	-0.225686869553	0
19.5	0	0
26.75	0	0
27	0	0
27.5	0	0
27.604422363523	-0.298869962794	0
27.75	0	0
17.650384190064	-0.227839036584	0
18.343198956448	-0.236734208617	0
18.5	0	0
24.25	0	0
20.143897114391	-0.233773711865	0
25.5	0	0
25.25	0	0
25.344389320279	-0.31693710653	0
21.059546193318	-0.24845941382	0
20	0	0
25.842927934822	-0.248287716678	0
25.75	0	0
25.613904645132	-0.216025146631	0
21	0	0
11.763551406169	-1.481607093928	0
30.981104050195	-0.5526690913	0
30.873880294509	-0.217692518774	0
30.706626759758	-0.34945139905	0
20.75	0	0
20.85240828135	-0.178025243856	0
23.75	0	0
20.66289882074	-0.189089155251	0
30.204950808504	-0.791758966623	0
30.715535843381	-1.149995259266	0
30.543724897762	-0.572259098027	0
30	0	0
30.180216671806	-0.343473673313	0
30.25	0	0
23.229584388362	-0.458653998547	0
29.5	0	0
29.623391954444	-0.322069028408	0
29.75	0	0
21.618913855927	-0.233585823579	0
21.75	0	0
29.348490380579	-0.521100538161	0
29.36294710412	-0.230601226356	0
22	0	0
22.25	0	0
28.25	0	0
28	0	0
28.129259193923	-0.314252106503	0
28.44374413871	-0.484576386004	0
28.100199615755	-0.812038297775	0
28.649230646972	-0.871769248311	0
28.618403654115	-0.227691192115	0
28.5	0	0
28.387848605749	-0.205892081491	0
29.054768525933	-0.708603081552	0
29.344906532636	-0.846887322836	0
26.327430876245	-0.35930637997	0
10.349120516034	-1.04150119828	0
10.894920134778	-1.514321070539	0
24.59640839418	-0.191760546865	0
12.75	0	0
24.5	0	0
13.102881121377	-0.411296235356	0
25.099388239946	-0.214879887129	0
25.97986022697	-0.52841375324	0
24.398993403151	-0.196312410538	0
17.860840746535	-0.577367743328	0
17.566481510048	-0.529340016102	0
26.5	0	0
16.637148248735	-0.188015807345	0
18.183918302467	-0.396443618316	0
27.159348252167	-0.205297590358	0
27.357530053515	-0.198815038154	0
27.25	0	0
15.060354649709	-1.112587998155	0
15.51532665618	-1.043792149387	0
15.178150912169	-0.713100616689	0
10.051363365948	-0.719159376333	0
14.661248691948	-0.27865166374	0
14.75	0	0
27.868836823455	-0.217301839861	0
31	0	0
30.75	0	0
-0.020273477909	-1.415389842481	0
1.054972770973	-1.487485199502	0
0.512583677021	-1.0438154777	0
0.75	0	0
2.361419414365	-0.794513604096	0
29.890297721653	-0.2433406165	0
30.473599299501	-0.238575611274	0
30.5	0	0
30.660802173874	-0.161931182737	0
28.783812899585	-0.467926883932	0
4.937022539393	-0.72440615077	0
6.696914540879	-0.380672503721	0
7.434272221796	-0.695675918868	0
15.339606453815	-0.166204802571	0
15.281953315711	-0.388999642276	0
11.893544445085	-0.335972898148	0
12	0	0
9.753796445798	-0.478866225926	0
7.720012958977	-0.638314519759	0
21.871398197179	-0.313006985103	0
21.615176662754	-0.521922347305	0
21.856785525528	-0.665128848631	0
20.792152536902	-0.448319093295	0
21.109577821412	-0.527879642114	0
21.360297691811	-0.734200004244	0
15.547854961707	-0.580173571081	0
24.496861814148	-0.467031445896	0
25.067351422649	-0.463427753535	0
24.81263825963	-0.684738154192	0
22.865620821195	-0.218348593093	0
23.443705587002	-0.773171720633	0
27.277617447467	-0.489224417775	0
27.863714790534	-0.471681393437	0
26.239117668995	-0.863279739365	0
29.896797054636	-0.547765129844	0
29.612773839625	-0.699757135752	0
29.867172666547	-0.87444432816	0
29.610354212963	-1.521444655905	0
29.59548165142	-1.071765512911	0
29.115129171034	-1.220660174798	0
31.345359428525	-0.458952144926	0
31.144859415042	-0.241304201582	0
15.919565295974	-0.746550096707	0
16.063006820294	-1.289595303187	0
16.5	0	0
14.900855313538	-0.178071167744	0
14.161016743654	-0.72559708689	0
19.011498044983	-0.834202892304	0
16.760433281999	-1.263698818643	0
17.280361389946	-0.931704507314	0
-0.627742252535	-0.296285438777	0
-1	0	0
-1	-0.5	0
0.625738545692	-0.228405936136	0
0.5	0	0
3.313957665883	-0.865581185485	0
3.619156095452	-0.800599314657	0
[...]
CELL_DATA 986
SCALARS 100.00_0.31 double 1
LOOKUP_TABLE default
9.1658396232532 9.7933936534273 8.7511186653661 7.0236753823151 6.0949337581422 9.1460251777322 7.7922287477672 5.9602004376047 10.455297832325 8.7148321288198 8.0557753883338 7.7490615922388 8.1846540218872 12.85488317688 10.241852727896 8.7235478872787 4.1011519716155 8.267866658186 10.042799522943 10.959921212127 9.9968770145453 10.568642682849 10.319447331855 9.5059347381144 12.305871145474 9.0302802457643 9.5326695862041 6.8131152640966 8.8191701881145 9.7689103830953 7.4362765033924 8.3336336267845 10.296729641577 9.703193190055 7.0122703110358 10.035310634489 8.6915009442767 8.0976841682928 5.6197815553117 6.7649728817497 10.667674075496 6.175956016877 8.389843750097 4.5687294819363 7.9707948732646 7.7582363264247 6.5896360124928 7.1367939825032 7.4804238605511 9.1137380512924 8.1431391547821 7.0358638533823 5.8577859800734 7.9899465174292 6.646614779734 7.9753207813332 4.5310731973018 9.5513984395807 8.8442876854541 6.9699443333932 9.2441168791546 7.9614420070597 11.362363174835 10.59300544452 12.789400074383 11.842414116913 6.9947182153975 6.4144636518657 12.442657596097 7.3572405813924 12.96337939204 10.954617186635 8.4009587922771 10.742357969306 10.001922431724 6.8430140750052 13.861166344748 8.5739032662231 10.396225290068 10.295462353619 8.0937181439323 5.6678013851177 9.5998354874988 7.4258083448297 10.534519938114 11.442843023908 6.8363880655172 9.6296660599791 12.12414222949 11.901699629043 8.5258709526506 11.917057873554 7.7062615160438 8.1007057768417 9.1581033336147 11.098605730712 11.172898516692 10.689287326877 10.768758321898 9.4406086312104 9.8938224529142 8.8474708374529 8.7008890602333 9.9815319136437 6.9653163457723 5.6639250719985 9.7244636148065 9.6110232355065 8.5419584454292 10.868327556478 7.5895133624077 10.025771925754 10.17070686451 7.3950620796353 9.6807813359163 11.085134494225 9.6825873791617 9.8974107567881 8.9146784863089 9.2034623604629 7.362211514482 10.77752438367 8.7490577298148 6.8944834096062 9.1818347615751 9.5238838394942 7.221949774248 6.8780149121071 10.45031238357 11.155491108955 9.0295121349307 9.7050296270952 10.708798874405 9.0918224377921 6.2544978576509 9.6226717869016 7.5641240551476 13.214257473631 11.784616217687 8.314662449434 11.492616763531 8.262890595279 9.9938534927706 11.365087793772 19.881607527378 15.626945043893 8.3994257522274 5.9098955293454 9.0624415457174 7.1200113681623 9.9229454952861 10.387242159554 7.0700609529582 9.4914492552488 12.176629234808 13.071946531221 11.413532327823 7.3217352141592 6.9291760389917 7.7250658349019 11.03679443286 9.4961465333812 7.3777564366726 11.318462053555 10.045233447108 8.0488402050714 5.3892897251395 7.4548508837988 11.056998443399 11.775059597675 12.686362258347 8.9064990255663 5.6085609480392 6.7003941146554 9.8651420176934 12.835550815377 10.829389341021 8.8263037514085 9.6343059009758 11.067645360887 11.11332726865 10.193908280861 10.658647223448 6.9953331671279 6.8556534966238 11.582826771728 10.457374168471 11.028615003576 9.4561359865512 7.0657452154305 7.6073629821926 5.7015372373698 10.325837102955 5.4137716085768 9.8533506418309 10.362967313769 5.4551208347667 11.420082416292 9.2661176768354 8.8614659630017 10.434055950055 9.1674656536383 8.3879458395009 8.0924830019875 9.6043047239513 7.2663667824647 8.8194878427666 9.9599190247395 8.3423027484239 9.844734084196 10.157197792973 12.222504268443 8.7795181387346 7.4612644853034 6.9495372822199 6.9453689763558 4.8420921915806 8.4025631902612 5.5617718717531 8.7329011612563 11.093564412739 9.0058457124798 11.069012831005 10.655460799894 12.492595635141 10.426917180933 10.028376167824 14.104343554184 8.330048898035 10.045551659205 8.5065645214333 5.0820831781916 10.040094165981 10.062422119725 7.6707001425104 10.042200050693 8.8760148764439 6.4730875899289 10.19231971876 8.5251000110866 6.8102396636129 6.5788709782687 10.518713794925 7.8870368704018 7.6440399561398 8.9834894271786 6.6548696770625 7.9596300487349 7.6726076245467 7.2384028934487 6.7474123809884 8.0456693491818 6.129667612403 9.6159452208725 11.795593803766 6.6731335159395 9.5033518073095 9.4450411155883 9.0334086950658 6.9037914727299 7.9156127575561 7.7674921281546 9.1869374557446 8.4191255369663 7.0479308611569 11.975018861172 7.7118377287367 9.562497865327 7.2493238991534 6.9462088340531 7.9007026085728 10.849707984706 7.8260113480208 7.4497663234322 10.544168190741 11.013646635686 7.3171308515658 8.2843289166418 9.7483251192509 9.3612136419495 8.019442500189 10.153197437089 10.728368468665 10.505044046359 6.6635797064262 10.694971778928 9.1817837990935 10.779328242409 9.9418326841075 9.0360891837527 8.4582820030747 8.4271083610507 7.6184717959902 10.463674781882 8.8803296781194 12.884288990011 8.0163539518481 11.060717684799 13.661751140758 9.0758572584389 6.2802359581526 9.4484984828317 10.680222587756 9.995007231314 6.0054762423326 7.9694254923708 8.7988175337512 10.23852204288 8.3129446144638 9.7049872900924 9.3787727663444 9.2948517025716 7.2509839329485 7.7550342370696 9.4370604931937 7.986540384033 11.271316130104 7.6479885522659 7.2654478645666 9.8320455888631 10.132109039272 11.93689070247 7.1664110762904 6.8690784568057 8.5442140318712 10.227920910542 10.416074010946 7.2277401445369 6.3295342092608 4.6242777115452 7.5010727438171 7.5602797134423 7.6227654638913 10.685680056058 8.5639468931916 9.469984049201 7.804222370459 10.569775233018 8.4265023479346 9.8332030607704 4.6940802233081 5.2064695148712 11.668005916944 9.2600768297592 10.843402970465 10.163813962074 12.472745228896 14.032514027607 10.183699350691 6.5827435537485 8.8872134486812 6.4464769926915 8.2427856297829 5.320602975866 6.6574573127202 6.1647347980776 5.9490037942533 7.4296916060491 6.7192606695074 7.5802997952044 6.9545252905453 5.0910134381897 7.333254432438 7.7542072880593 8.8173741337696 6.4579620717869 5.7989411694141 5.0889630107117 7.2988187490563 10.016502436406 10.059691730877 7.0249788450683 6.368685408421 5.6520398450675 6.8217396273843 7.7374435052546 6.6488809601313 11.03802341399 10.588034241734 5.8567355566419 5.0617567434327 6.7422106601692 9.0222294418514 8.5853765893693 10.150209377554 11.249674885195 8.3052631449489 9.8905163512094 6.8852450610467 11.026755611854 8.6837320810188 7.7491411812165 5.4356400038946 8.9023212331891 7.543710285058 8.8017082104607 6.6330243725998 9.1108480174239 7.9606899969711 9.4023258557894 11.109632072119 11.644945329758 9.8739112877612 6.9118262935107 5.6018239150653 11.947122683502 5.7866041158358 10.604068625546 10.124650059766 7.4948188335158 13.288850300789 8.3539672948833 7.9257651600602 7.3699690726697 9.1684688681654 6.9795667792195 6.1541400701418 6.9779264455598 5.1275447567971 6.6183160187156 6.3990612854876 11.140302813139 9.6726506746849 6.6278153631835 7.7892225650722 7.0409218392083 5.7856194314145 6.7152871478929 8.3477783852833 7.3003922592813 7.8544618583358 10.345398294134 9.6478742625489 7.4405234152027 7.3404965483466 8.1076504484026 5.1363681811815 6.9030520653561 4.8798428207178 7.5515283708872 5.1808125263075 6.7857915271851 10.285541616881 9.7088855383755 5.1478504586499 8.0609447744706 4.2597654018825 9.5373215398457 6.5787373349292 7.4038094031693 10.368500481545 10.613712705841 9.9680172578517 6.5243590830563 5.4404547078062 4.0225022123419 6.7173516293583 9.7943623256848 7.7625957032885 7.8861407782054 7.290848704297 7.5420367589991 7.8647953368734 6.89807547317 6.7851195327146 4.6165639275805 5.7213955397107 6.4984908880416 5.2710722716277 4.6615692301514 5.3719966586729 8.2852039244027 6.398216596935 4.6347347283252 4.1860218200231 9.7088940564831 7.5361473582149 6.7773256783703 6.2060713299986 5.1597609127157 6.0407241402217 4.9976594379699 5.1984000394169 10.70542619598 8.2500620730361 7.0613278132262 7.7874753601135 9.9336785535741 7.4823795481232 7.9146696195936 4.2987933091524 8.670215440432 9.7992615547812 10.435192618384 6.4443825993205 5.5243926171766 4.5301638181756 3.6749347079054 6.3450419514272 7.8729472350783 6.1666566589435 6.5696633227342 4.9630818613002 5.9260109697349 8.2457037388921 9.8479348687577 5.1998938392522 9.1501598318847 9.8353359269821 3.8839422284826 8.5774612904313 11.989349360816 10.786714076346 4.9404384361065 8.3458829369527 6.918478436871 5.9766926445991 5.5253935773708 4.6932615679273 10.17447850814 10.226685559999 4.519775423304 8.4065622471086 6.5254779603078 5.4119323605153 5.3028000698783 4.2474501587307 9.6521567553252 8.8158345416948 7.7563398250074 6.4215717362284 7.4015264687329 8.0097390694045 7.3432848568591 6.0996062993127 7.3240122571163 9.9640318739131 9.2484061899034 4.8314126428364 3.4865055233206 7.3765059548465 5.693662856937 7.8897484556711 9.7835420458543 5.0268575630743 8.7179215785089 3.5783904852341 5.370895757202 3.4364755471144 4.1092243104196 8.6028108419145 4.9760569603025 7.4317966527361 5.1791430861217 7.3159315859319 7.0901479362977 5.8970487542862 7.1480340161837 4.947843728482 5.5607954655453 5.8653599622426 5.3921674838888 7.2270245326031 5.4544291329653 6.6248478257593 9.4529783942341 5.0722767435172 4.4694335084032 6.3819331246484 5.9417389061827 10.750178218456 5.2651435575817 7.9235520417141 6.9602734219762 8.9720740624792 8.8170346672153 5.1413927842441 3.5132741090752 8.0680850368905 6.7075022746063 6.2589997051625 6.2968932995996 10.707109163985 7.2971519720162 4.8977729614993 7.2019815104573 10.466832365683 8.2427801316464 8.3346259763247 7.2084722478001 8.5161933628258 6.9256850273135 3.7457885095038 6.9008468337521 3.9388302293684 8.0175824285679 6.7406147023692 7.130041247324 5.6324520190708 6.4957265604821 6.8313868212737 6.7275031739763 6.7161008925332 5.3248425366934 4.3482876109298 3.6835977996897 4.6636400470601 6.2383786742977 9.5209398185528 6.8747754855179 6.0307622432802 5.8705377525272 4.8123401203653 10.308951859693 4.8412851853738 10.774863380012 7.4468789933687 3.63265599903 8.2038789913778 8.7918465739332 6.3532079601547 8.4952712333551 7.1416926438762 5.3268517512814 5.5596466061998 4.8266887790486 7.3470851183458 6.9006509367696 3.7248816658506 4.5090554932455 3.9380384752158 4.9563365688675 4.3378064887179 9.0798007245777 4.8747113710891 8.3306958641154 4.4050920621464 4.5963919827837 4.4855789434426 6.9602467027286 4.0960427250223 3.9451059424088 6.1369394086317 4.3584603944994 3.5193186106783 5.4496860157139 10.050694574862 8.2375303192742 6.7616053504894 4.0659922719929 4.386359070113 4.418823080889 7.2711258214538 6.9642587868455 6.8630942012339 6.0439335947679 8.3275935866464 7.5678523110791 4.967118582066 7.8344449104435 5.2747552190525 7.5834433811624 5.3302903235088 7.1379533868588 7.9807848087229 6.245627021829 7.3195427810003 6.9074876641675 7.3227911922347 7.7500369230184 7.9842244368019 6.6190032349849 7.4572610189633 3.9064685816233 5.2344578332888 7.3393475683455 4.2462216191199 9.348523843818 6.6491945933973 5.6476112390341 5.7788439221666 5.6667266876517 4.7358579011104 4.6894971714252 4.5133021797532 4.3752028368729 4.5900477840863 9.7064339802171 8.0241162326046 9.4927076227651 10.668307210455 4.3431695860534 3.4437767653992 4.7604563633296 5.0267795353536 5.3759681148219 5.1748468090674 5.1078218693958 4.9365134396845 5.9660512148584 5.9208463186578 5.9990235140845 5.7568699140887 6.0998653635618 5.9218822689104 5.4770341047345 4.8548495716297 7.1708854519195 7.0163946217501 4.09995258823 3.1972567128237 3.2851787544244 3.9566170513917 3.7024649533855 6.3310514922545 5.1770037618856 6.2905240190388 5.9923717163436 16.067384340769 14.310337829906 3.5262440604506 4.147584466026 7.2037381972635 5.2207714443909 3.2923403684461 3.6084813730947 4.7059622380113 6.6205546539432 8.6103237893455 5.9765445083608 7.1775483178929 4.6308565209872 4.831665271725 8.5984820195398 4.5674912820143 6.5175224341287 8.9816334195626 4.3078402651031 3.867090462724 6.9272454123524 7.3202320178314 4.6548910710992 4.0725407543983 4.0566677553799 5.6942497736753 3.8017286889781 4.472747899263 3.4099571676416 3.3839128568834 3.8927683796043 9.2467047062291 4.2234709237395 5.3372105251452 4.1718280618812 5.1196688831128 3.8366246071557 4.8397087608528 7.6721790429228 3.3899138953386 5.83590998275 3.2838310771846 3.6448876866453 4.8246842680915 3.6940921990163 3.6060817605848 3.5319634225997 4.0567058997365 3.6994400617628 4.0973101818405 3.5688694148596 6.6413994876598 4.6497396146929 3.4771696284014 3.9032585651078 4.5074277846793 4.319055501697 6.420180185734 6.486372941026 7.0480009472646 6.6738681701918 5.9230945786691 6.359986690146 5.4468443712831 5.8274114714804 6.6771526799841 6.3320143071159 5.0544122994737 5.5796991773172 5.5601742789528 6.764652008092 6.0670394488945 3.2350349748469 4.2104242685172 5.0931175684683 4.1749989371051 3.9858959147705 3.6368738640338 3.8162545548414 3.2940940136423 4.081006294021 3.605757544118 3.9940861441442 4.4000010974752 10.757753710907 3.959042766967 4.8416233027852 4.5897300645163 8.8761585461435 7.2255810485157 3.5516074416909 3.4783441956591 3.3602188784713 4.1740348066354 4.6354994382016 17.073106483134 3.4934048207902 3.6981802297039 4.0432852587253 3.2842966319025 4.2901937289169 5.0746996903076 4.5532280702374 4.4345962983267 3.5133584052174 4.4604734993289 3.8611684249845 3.346824123513 4.0386488721525 3.2633235016832 3.3959821343437 4.155203201339 4.0626326651604 3.3083066010824 3.43048580059 3.0304150639077 3.203298916811 3.0621350391638 3.3143588135534 3.4498005147363 3.9707034262803 3.90879374379 4.8407879260029 4.9657241285695 3.4520597395581 3.3234629000398 3.257870948669 4.0313613615473 3.3407075587653 3.2777985749423 3.3723725666214 3.363863996173 3.3063760387583 3.4630432893212 3.2085486816949 4.0459256190739 3.2225543441077 3.3875883709859 3.799523000874 3.6849277799797 3.2090780020245 3.1776398165119 3.390663174819 3.3670087642458 3.0628743380762 3.0477141683747 3.2052941607673 3.2401072576625 3.1425952437062 3.2903104181249 3.6098131173276 3.3376498538393 3.4159581679043 3.2517884611674 4.0729608722879 3.2698557890152 3.3422013771219 3.0284009661312 3.114295293606 3.216539974491 3.1523737723529 3.3102067786781 3.2585781137204 3.3938367560366 3.9831551707549 3.2649270826367 3.6028352381741 3.2591149721372 3.2790712469276 3.3331245419229 4.1232845668805 3.4232686953013 3.3375535060183 3.2490970043598 4.1247868552579 3.4566908538401 4.324876630103 3.666694954441 3.3673921946341 3.463574571501 3.4169006629663 3.1154098302515 3.619110018369 3.6344730951583 3.5297062017543 3.5466209229602 3.6261655235144 3.4560984979469 3.8587224362529 3.2809128593971 3.6005848945369 4.4440152228593 4.0282954736184 3.770019281412 3.374818154279 3.9312311181103 3.2809198657434 3.6584609271847 3.3438015289272 4.0073860599887 3.5673390705594 3.8338553370239 4.1508419690282 3.5160356256518 4.1049165857276 3.7173854857637 3.6823058214454 3.8606242615374 3.9769912382294 4.0756041146357 3.8698643393459 4.2023637014881 3.4478663045464 3.5007498438968 3.3855207234973 3.4003754566018 3.5981319677387 4.0553387272476 4.0873102990413 3.9583634666564 3.5653232003675 3.9332104257157 4.0640098337336 4.1674594856055 4.5590585983188 4.2415166842922 3.5983004408047 3.5902948474492 3.517234008593 3.7199546988104 3.8996714281118 3.396463256159 3.7323172044099 3.8806278465857 3.5583877072175 3.7301097882486 3.5637112752525 3.9071651431722 3.9386866348997 4.0426868141913 3.8832146266384 4.2905655627468 4.2332167170684 4.1159659298013 4.0795132382373 4.0316725913849 4.2009503040964 4.2173831975746 4.2137488377475 4.1715575485314 3.9430278449368 3.5394068741852 4.4441536492785 4.1155764359328 3.8201081227744 3.9764945559236 4.1573647395422 4.2012185120793 3.8643133341833 4.0255535196892 4.3222488102011 4.3578536938605 4.4691270513535 4.474994110487 4.2555337844183 4.5405417768791 4.4966536043017 
SCALARS 200.00_0.67 double 1
LOOKUP_TABLE default