# vtk DataFile Version 3.0
d-2__ created by libgimli-v1.1.0
ASCII
DATASET UNSTRUCTURED_GRID
POINTS 570 double
14.5	0	0
14.25	0	0
14.386963504964	-0.201738469428	0
22.399299936458	-0.310870122736	0
22.129824335287	-0.229914148082	0
22.126320781198	-0.518791771445	0
8.472303742627	-0.591754876635	0
8.780507935475	-0.76092407121	0
8.82173151259	-0.349253271447	0
18.663262297679	-0.667179415955	0
18.934786529245	-0.453308328646	0
18.636898038907	-0.29588182328	0
4.016904362632	-0.85330676142	0
4.076038737616	-0.331410355179	0
3.713721571226	-0.470767763626	0
1.89953779852	-0.269343012166	0
1.633800503821	-0.203067612233	0
1.644492760828	-0.441295523531	0
4.368408037607	-0.250833874131	0
4.337474161742	-0.544420985055	0
4.67745607622	-0.378433532554	0
1.406172533733	-0.772361039307	0
1.913288206557	-1.218576310882	0
1.90687689783	-0.651895683444	0
2.5	0	0
2.25	0	0
2.347047126858	-0.185539804102	0
1.374000926997	-0.300418771701	0
1.25	0	0
1.114902662369	-0.201591505098	0
1.067401015567	-0.470108640981	0
5.75	0	0
5.699780065382	-0.324747799653	0
5.924584257371	-0.172748359932	0
0.883560935405	-0.231136840652	0
1	0	0
9	0	0
9.117836368049	-0.253904480787	0
2.625577516194	-0.346770599322	0
17.859079774019	-0.943547525024	0
17.535029634209	-1.703182852412	0
18.338018094476	-1.366069799339	0
19.932263871771	-0.826489183604	0
19.881635677668	-0.346204516721	0
19.622287080959	-0.573770479943	0
1.5	0	0
1.75	0	0
23.25	0	0
23	0	0
23.109690227386	-0.220340974338	0
2.75	0	0
2.142562771237	-0.172460438312	0
2	0	0
23.332392704446	-0.202507275941	0
23.5	0	0
19	0	0
18.75	0	0
18.888143078348	-0.195773419804	0
2.90152418742	-0.185685383897	0
7.612175045312	-0.180627982114	0
7.527150943175	-0.401430797998	0
7.881917737402	-0.30462800112	0
25.630635194756	-0.512020961038	0
25.243766894324	-0.80097755811	0
25.758031115142	-0.952821630144	0
3	0	0
28.84859809239	-0.201276387394	0
29	0	0
28.75	0	0
4	0	0
3.835807353334	-0.199536243303	0
3.106904732949	-0.178783649348	0
29.25	0	0
29.092446172194	-0.305987136665	0
13.5	0	0
13.667851890428	-0.185102765244	0
13.75	0	0
3.75	0	0
14.407363653886	-0.441423674912	0
14.125469935998	-0.279652141152	0
4.25	0	0
5.061980176718	-0.407989246181	0
5.335512032876	-0.269401530321	0
5.113979852892	-0.173834924157	0
11.882046000841	-0.812345557852	0
12.478640631525	-1.146569360669	0
12.244190771573	-0.565936619511	0
3.633270844505	-0.195395238442	0
14	0	0
18.378272976509	-0.514977451159	0
5.5	0	0
9.619519097921	-1.16461851757	0
10.030576753886	-1.587265312651	0
9.961661342999	-1.070235523667	0
5.25	0	0
5	0	0
13.157975569138	-0.830425793913	0
13.83833027638	-1.238601004239	0
13.671302359608	-0.710707966059	0
11.325917093147	-0.8366783502	0
11.612143285947	-0.506264798476	0
6	0	0
7	0	0
6.83842404292	-0.188923754932	0
7.11236984822	-0.391746146843	0
6.631875629497	-0.169178192832	0
6.75	0	0
3.21002197083	-0.595267231049	0
3.445510026908	-0.608065324465	0
3.362318141622	-0.306501255187	0
6.120159502895	-0.164221934939	0
4.538525595924	-0.906226152762	0
13.233775457127	-1.737244787017	0
4.5	0	0
16.138065841822	-0.472802517973	0
16.126746690205	-0.221608117926	0
15.859319180798	-0.326402762318	0
26.080401003391	-0.227842452866	0
26.25	0	0
26	0	0
3.019224421113	-0.401469974918	0
8.234901607028	-0.35771789179	0
8.518285578354	-0.242327591839	0
8.328777073389	-0.153008859619	0
7.25	0	0
7.400656881666	-0.195280611572	0
7.5	0	0
5.385509485898	-0.709154879541	0
5.948697127931	-0.745234910621	0
8.75	0	0
8.5	0	0
8.25	0	0
2.214249105773	-0.404278959534	0
2.896561357202	-0.792481120253	0
9.25	0	0
4.920911116561	-0.192028847294	0
9.651670336652	-0.200847798694	0
9.849824537955	-0.19917205686	0
9.75	0	0
10.095049354068	-0.315754204277	0
10	0	0
3.25	0	0
6.738406513564	-0.710129601907	0
7.121614580011	-0.943026074581	0
11.345829942703	-0.314788260019	0
11.25	0	0
11.104427225455	-0.188863495516	0
6.052412255932	-0.372556729023	0
6.373371846535	-0.274163514827	0
10.25	0	0
10.380281579003	-0.241092027437	0
10.5	0	0
10.75	0	0
10.909079077441	-0.189427130481	0
11	0	0
6.25	0	0
6.5	0	0
4.75	0	0
3.5	0	0
10.672815698565	-0.318467932684	0
10.772487906066	-0.787092734739	0
11.020900486567	-0.439266778492	0
8	0	0
7.75	0	0
11.5	0	0
11.619450354736	-0.231443672836	0
11.75	0	0
8.139317726831	-0.163309591658	0
12.25	0	0
12.158949464947	-0.235415698299	0
12.412455385193	-0.275030800337	0
12.929165084344	-0.221336108042	0
12.686337592177	-0.258437422252	0
12.900449535554	-0.462768612232	0
12.5	0	0
9.405755833308	-0.325979504745	0
9.111697192308	-0.594170467817	0
9.457257345083	-0.753685223931	0
18.101369157139	-0.618560521812	0
18.336839281097	-0.861122419318	0
10.385948631267	-0.570640149046	0
9.5	0	0
13.411260455969	-0.342646276848	0
12.643108055516	-0.590179775368	0
13.137744715761	-0.195204172124	0
13	0	0
21.25	0	0
21.358341816502	-0.326561417551	0
21.5	0	0
13.816492716597	-0.40394453634	0
20.25	0	0
20.423452336785	-0.313445603959	0
20.5	0	0
17.789350393153	-0.390447709085	0
17.987794057246	-0.401472255242	0
17.881276545163	-0.206424156589	0
19.564465692234	-0.270867872644	0
19.290725118801	-0.49926248604	0
16.392319441256	-0.29915360323	0
19.443730892406	-0.923508713428	0
20.457987075478	-0.803203365193	0
20.167450719332	-0.505159975143	0
0.103762538371	-0.253013629949	0
0.267057015134	-0.483604909932	0
0.374713194419	-0.2320817565	0
13.25	0	0
17.415572543912	-0.230682214253	0
17.5	0	0
17.25	0	0
18.108153655084	-0.208141099276	0
18.25	0	0
18	0	0
15.75	0	0
15.544586046819	-0.246453491997	0
15.122708481244	-0.193620038745	0
15.25	0	0
15	0	0
19.75	0	0
24.149237782749	-0.319013340846	0
23.842766599446	-0.577371105011	0
24.183995039967	-0.73159476451	0
13.871646321742	-0.17394291424	0
23.862588150518	-0.245417872715	0
16.84024277193	-0.203626765466	0
16.704049384397	-0.435508179396	0
17.112673188265	-0.38804641709	0
24.75	0	0
24.832880292394	-0.290571430318	0
25	0	0
16.40158555625	-0.755912194683	0
16.850299990829	-0.757941865332	0
17.75	0	0
23.567455674596	-0.325197491724	0
16.25	0	0
16	0	0
22.645812614293	-0.197864648876	0
22.75	0	0
22.5	0	0
16.75	0	0
17	0	0
24	0	0
26.914424714815	-0.337869958787	0
26.621963281699	-0.624626679172	0
26.977877660759	-0.778408201088	0
26.622424322919	-0.264588309935	0
19.34462271879	-0.199329831305	0
19.25	0	0
19.118057075065	-0.225686869553	0
19.5	0	0
26.75	0	0
27	0	0
27.5	0	0
27.604422363523	-0.298869962794	0
27.75	0	0
17.650384190064	-0.227839036584	0
18.343198956448	-0.236734208617	0
18.5	0	0
24.25	0	0
20.143897114391	-0.233773711865	0
25.5	0	0
25.25	0	0
25.344389320279	-0.31693710653	0
21.059546193318	-0.24845941382	0
20	0	0
25.842927934822	-0.248287716678	0
25.75	0	0
25.613904645132	-0.216025146631	0
21	0	0
11.763551406169	-1.481607093928	0
30.981104050195	-0.5526690913	0
30.873880294509	-0.217692518774	0
30.706626759758	-0.34945139905	0
20.75	0	0
20.85240828135	-0.178025243856	0
23.75	0	0
20.66289882074	-0.189089155251	0
30.204950808504	-0.791758966623	0
30.715535843381	-1.149995259266	0
30.543724897762	-0.572259098027	0
30	0	0
30.180216671806	-0.343473673313	0
30.25	0	0
23.229584388362	-0.458653998547	0
29.5	0	0
29.623391954444	-0.322069028408	0
29.75	0	0
21.618913855927	-0.233585823579	0
21.75	0	0
29.348490380579	-0.521100538161	0
29.36294710412	-0.230601226356	0
22	0	0
22.25	0	0
28.25	0	0
28	0	0
28.129259193923	-0.314252106503	0
28.44374413871	-0.484576386004	0
28.100199615755	-0.812038297775	0
28.649230646972	-0.871769248311	0
28.618403654115	-0.227691192115	0
28.5	0	0
28.387848605749	-0.205892081491	0
29.054768525933	-0.708603081552	0
29.344906532636	-0.846887322836	0
26.327430876245	-0.35930637997	0
10.349120516034	-1.04150119828	0
10.894920134778	-1.514321070539	0
24.59640839418	-0.191760546865	0
12.75	0	0
24.5	0	0
13.102881121377	-0.411296235356	0
25.099388239946	-0.214879887129	0
25.97986022697	-0.52841375324	0
24.398993403151	-0.196312410538	0
17.860840746535	-0.577367743328	0
17.566481510048	-0.529340016102	0
26.5	0	0
16.637148248735	-0.188015807345	0
18.183918302467	-0.396443618316	0
27.159348252167	-0.205297590358	0
27.357530053515	-0.198815038154	0
27.25	0	0
15.060354649709	-1.112587998155	0
15.51532665618	-1.043792149387	0
15.178150912169	-0.713100616689	0
10.051363365948	-0.719159376333	0
14.661248691948	-0.27865166374	0
14.75	0	0
27.868836823455	-0.217301839861	0
31	0	0
30.75	0	0
-0.020273477909	-1.415389842481	0
1.054972770973	-1.487485199502	0
0.512583677021	-1.0438154777	0
0.75	0	0
2.361419414365	-0.794513604096	0
29.890297721653	-0.2433406165	0
30.473599299501	-0.238575611274	0
30.5	0	0
30.660802173874	-0.161931182737	0
28.783812899585	-0.467926883932	0
4.937022539393	-0.72440615077	0
6.696914540879	-0.380672503721	0
7.434272221796	-0.695675918868	0
15.339606453815	-0.166204802571	0
15.281953315711	-0.388999642276	0
11.893544445085	-0.335972898148	0
12	0	0
9.753796445798	-0.478866225926	0
7.720012958977	-0.638314519759	0
21.871398197179	-0.313006985103	0
21.615176662754	-0.521922347305	0
21.856785525528	-0.665128848631	0
20.792152536902	-0.448319093295	0
21.109577821412	-0.527879642114	0
21.360297691811	-0.734200004244	0
15.547854961707	-0.580173571081	0
24.496861814148	-0.467031445896	0
25.067351422649	-0.463427753535	0
24.81263825963	-0.684738154192	0
22.865620821195	-0.218348593093	0
23.443705587002	-0.773171720633	0
27.277617447467	-0.489224417775	0
27.863714790534	-0.471681393437	0
26.239117668995	-0.863279739365	0
29.896797054636	-0.547765129844	0
29.612773839625	-0.699757135752	0
29.867172666547	-0.87444432816	0
29.610354212963	-1.521444655905	0
29.59548165142	-1.071765512911	0
29.115129171034	-1.220660174798	0
31.345359428525	-0.458952144926	0
31.144859415042	-0.241304201582	0
15.919565295974	-0.746550096707	0
16.063006820294	-1.289595303187	0
16.5	0	0
14.900855313538	-0.178071167744	0
14.161016743654	-0.72559708689	0
19.011498044983	-0.834202892304	0
16.760433281999	-1.263698818643	0
17.280361389946	-0.931704507314	0
-0.627742252535	-0.296285438777	0
-1	0	0
-1	-0.5	0
0.625738545692	-0.228405936136	0
0.5	0	0
3.313957665883	-0.865581185485	0
3.619156095452	-0.800599314657	0
[...]
CELL_DATA 986
SCALARS 160.00_0.20 double 1
LOOKUP_TABLE default
8.3009192301239 8.5741967918162 8.1559544489299 6.4993919304338 5.8411208378544 8.563143525823 7.5456381247347 5.7170871592379 9.6108151451594 8.0681443835835 7.5171309372832 7.7781378838013 7.6489379602862 10.173857165838 9.5695883277122 8.0707414663579 4.421662486807 7.7577219549505 9.3633197102929 9.6919918329849 9.5064511721006 9.6699324382197 8.9514398038182 8.8437292072573 8.4082908034575 8.6241614871513 8.8415789537787 6.1699859737789 8.4150167522471 8.544805742402 7.0617072763268 7.9743906152747 8.5241272982054 8.9570105264041 6.5795698987721 8.7196083091997 8.4994374436829 7.7616601353999 5.5184846404872 6.4095672447535 10.014902279509 6.159056159163 8.2218030286182 4.6626940769703 7.5384028471697 7.4088706107429 6.1533755083802 6.7984048832677 7.460545014609 8.4103264976032 7.3901667001602 6.9526867252283 5.6781947897384 7.9970772276098 6.4503041148254 8.1888941814084 4.5187140520871 9.4130987562106 8.7323596355354 7.0417691468668 8.3974788381253 7.6577333712463 10.456230504713 9.8350846193272 10.316150450939 9.4511091589644 6.7745986652204 6.2136512115835 11.011432499664 7.0795839568288 11.661355656569 9.9738980610908 8.2188474112951 9.3498939047837 9.2948194227993 6.6434318631587 10.269486299246 8.1732042561919 9.6445622189648 9.7193833305334 7.7481336467031 5.6011662806563 8.6077516681575 7.3782130894483 9.5524227574644 9.6483377076436 7.1740543985054 9.1539973117099 9.0185936429004 10.716659228809 8.072327599902 10.207940420848 7.3172654501911 8.3598974605256 8.2810311879055 9.9577428190034 9.7064945045869 9.4451731533984 9.8233237571953 8.5123191291595 8.8910124627097 8.800791932952 8.0434577433039 9.07043583624 6.5584064400713 5.902997199681 8.8754328823849 7.9732820738241 7.7275371568177 8.6611732759791 7.2103934236816 9.0416240033043 8.5982267592041 7.6196939525202 8.5116580716047 10.387072728662 8.6447570451598 8.9907048865987 8.2679135809981 8.9582871844733 6.9596215550804 9.6167633949773 7.9991971119861 6.6428579618768 7.8627403796416 8.4589173909087 7.0056967559423 6.6524157858514 9.1506008484084 10.056234820601 8.7343659763025 8.8025062049742 9.2573834440776 9.1472137644732 6.1256439375323 8.4096128456685 7.0832339957037 9.4791321520934 9.0871144439564 7.4289772075018 8.266904991 7.3680945832958 9.2803865603654 8.7574613147647 12.35659330715 10.503697466445 7.7900447227984 5.7850826904086 7.4804376088234 6.6245282935357 9.7303750719454 10.350256532072 6.9814749958086 9.4823872643894 8.3859983507782 11.253274317059 9.2492232699176 7.0539206845834 6.9028524914821 7.1486140664776 10.293246978945 8.2345621100333 7.4805152762534 10.684134053621 8.8518260268143 7.823147072039 5.3250616592516 7.1702799899388 9.7851661677564 9.2437603656418 10.287087695802 9.0826265408071 5.4970255723055 6.8367600003689 8.5801683432728 8.6784007005203 9.1504018946542 8.2462625459514 7.5420854806352 8.1073394454108 9.3935583910276 8.4339855918744 8.8449180283892 6.5274060492024 6.5676165470225 9.7284806093018 8.8198662364079 9.3775797319899 7.6556057925559 6.3232307429676 6.859538921508 5.6148193736487 8.5951390529316 5.7073434299606 8.2444115823878 8.8464634286153 5.3949666323424 9.9303941570109 8.0445802953241 8.1109577835079 8.6368326916744 8.0066672523723 7.8592094454401 7.5296582090492 8.7423408960867 7.2654749801415 8.0256017216606 8.0805577076843 7.7997614348819 8.6797350762158 7.7949463038623 9.3496471137048 7.631680771388 7.3205917122413 7.0257221993685 7.0873217585899 4.8965299906129 7.4189689769954 5.6137933735219 7.6715071823952 9.3319409999279 8.0457891677923 8.7318674330883 10.588132475182 8.5749648857914 9.5850045705249 8.5527758342974 9.1887937239006 7.8549675610506 9.3587306889646 8.352479223011 4.895705931804 7.8966561067942 8.0891870257633 7.2344983744556 8.8376573973743 8.304485542041 6.3016002562314 7.9343159192161 8.0468896309065 6.8674036744684 6.5198455452479 9.7012261934626 7.511656845146 7.7064687823336 8.6934964232962 6.3559266874731 7.8938761906269 7.4364468790074 7.1702155580462 6.4177198902323 7.2039477831408 5.966131675204 8.3772843307784 10.669518861299 6.3451907999031 8.6591308351097 8.886690177402 9.3511445370271 6.7006329790614 7.6013701136027 7.4285890061411 8.7010184430005 8.0545543503192 6.6503023716613 10.889462641556 7.3210662141584 8.6580143555735 7.0528635345527 6.7191570149893 7.6830640792552 9.9264329739112 7.7386441366403 7.6770468809274 9.5928415513922 10.114792919705 7.1188631144998 7.8390182146205 8.7898445715388 8.1126395398706 7.4846794664969 8.8306828709655 9.3291102104867 9.1240145068068 6.5731319240882 9.1867977392826 8.6832009727993 9.5155094072012 9.2918703414914 8.6234561466925 8.1714000592638 7.655845024553 7.0900948412522 9.1599357782879 7.9881096654256 10.372189658864 7.5559944557941 9.2963854683927 10.505133593774 8.4010123404068 6.3424491537283 8.8092032685229 10.131540044047 9.262952254719 5.9565877777967 7.3150768672097 7.7690761479236 9.7286375539208 7.4494173011259 8.518630194609 8.0165386809525 8.1578750603624 7.0876096770764 7.2816411497399 8.1343043093665 7.1243699581185 8.6751632921393 6.9110888647991 6.8374981784546 8.6258408610778 7.8195025657104 8.7908980480279 7.1467734743963 6.8095248975508 7.5798791268665 8.0246438182582 9.2764845063107 6.5143497225318 5.795968711468 4.6013198556077 7.0067311974346 6.5027606841905 7.4559061559253 7.9848387965598 7.0793699371997 8.1991934069338 7.3670218828633 8.6672580737659 7.4114264957912 8.7615392027832 4.9531040080746 5.3188547883692 10.493911674635 8.6013580039588 9.3294266976124 8.6686281567076 9.3641000528573 10.534006701254 7.9305831221737 6.5941069555948 8.1853500610053 6.1330605718576 7.6394128228427 5.5391027089865 6.5576119689561 6.0132490337303 5.7495494988531 6.9783433458818 6.5089885479703 7.2062415587497 6.6398631345085 4.9565977691967 7.024773629847 7.4934192917461 8.3782085114662 6.2327796411257 5.6309818566357 5.0195647819056 7.1774213015987 8.9748954274293 9.1549340726535 6.9119115992342 6.1453836333279 5.4978892884551 6.6329514717315 7.6072298490597 6.4329157219484 10.010144266093 9.8849321560144 5.9107886610899 5.0741807832152 6.7738945632222 8.2889777658971 8.0243683250668 9.7907444406567 9.7205954326655 7.5810408538271 8.8249330261129 6.6632460946721 9.3980753620843 8.0214646714686 7.5754769266526 5.6475128769518 8.6070743814254 7.4542392966468 8.1428770309992 6.5245100365652 8.7566836346891 7.9463092938579 8.2169946872529 9.2497202215551 9.7439851927998 8.6271149213197 6.9696111569451 5.5680246876867 9.939047681241 5.6943892791671 9.8573769599791 9.2801112624232 7.1276369519214 9.9959927316665 8.0974109587743 7.6872548662581 6.7634642378714 7.9544251124335 6.9347960523314 6.1178069856232 6.4515582813653 5.2384198612722 6.5110201260923 5.8592366338882 8.6779205881928 8.2720533767418 6.2794225300358 6.784038733176 6.9973731431368 5.812918818352 6.1449103100812 7.1606539223901 6.5347349531778 7.1342676064317 8.9648975419273 8.3514204881477 7.3949653143649 6.7646298433982 7.6617479677015 4.9827547908748 6.7702938455011 4.9188770638384 6.7476059367802 5.162432220633 6.5781286823488 8.5352166749516 8.2535704883441 5.2310987862557 7.2959599004333 4.3263366234306 8.6484594193451 6.6985247071981 7.2940597260905 9.7500270230602 9.2368278060021 8.6505394774824 6.1571362118912 5.4236417278442 4.076890557034 6.8639899867901 9.1191305473403 7.4404128239529 7.3838498170496 6.9124452722639 7.1404461547012 7.3986370438717 6.7529865523542 6.5407252904129 4.5060331064437 5.5924609022733 6.214902145348 5.0986098551605 4.5838512011961 5.2021832763636 7.9397291410357 6.2211646694215 4.5331038457685 4.1092533514317 8.5705369572328 7.3553552721332 6.5611656670207 5.9818820897103 5.0544989660155 5.8383138062518 4.972754373999 5.2789194244671 9.9053050358053 8.0878384723508 6.6763191656724 7.2622114015002 8.6369019664496 7.03935328999 7.5714202630008 4.3478413222306 8.0689322693838 8.4838174187638 9.0497377609357 6.5552449130062 5.6095983528579 4.6267083472811 3.7419199783582 6.0370964157157 7.5904862559286 6.2292218450007 6.2754118179245 4.9996383434985 5.8746729015476 7.474550144553 9.1308592894464 5.1458931685874 7.9017260014845 9.0103888200953 3.9360150775632 7.6746547435807 11.13218991203 9.3689961035244 4.9755283895004 7.3440717290489 6.7955524467043 5.781095646774 5.3835979069932 4.7241151161628 8.6797811805685 8.5755751093687 4.6914145983412 7.4096451611602 6.5388492375868 5.4169147691722 5.1368622293241 4.4562020702765 8.3866147257195 7.6825483105609 7.0899768360289 6.0506387130584 6.8199903543467 6.7261517825222 7.2176903556339 5.9595729951022 6.7415071666045 8.4918823571304 8.0809869872013 4.8914446053417 3.5576218925231 7.1152856989762 5.3591438500537 7.5824773425497 8.1334166694497 5.0760555188182 8.0768676365297 3.725370514022 5.2481562783336 3.4786352238253 4.2463628030965 8.1108757967733 5.1037816852231 7.1513807114214 5.0820456407192 7.056703940924 6.7615830974517 5.625637002969 6.864830447749 4.840793203698 5.4391820785878 5.6590944413313 5.250277107159 6.9906879064219 5.3334056798157 6.6122181731007 9.0510577614492 4.9731048889675 4.4756729906133 6.1475429980362 5.7555060970862 9.4452103730352 5.4572482453216 7.5695097043056 6.3893951048632 8.5150677350007 7.6795282529129 4.9837344405841 3.7554660692626 7.2647450355144 6.3612415049498 6.0832309218879 6.1045498781898 9.2269014335872 7.1584194766516 4.8709011620494 7.3187031208003 8.5871806581567 7.3629254099212 7.3405785883398 6.5500775693907 7.2838606317295 6.3226912823751 3.9166827665684 6.6769090861428 3.9914367867068 7.473516595664 6.5713238844613 6.8862014446119 5.4704946762172 6.2473212421881 6.662427304258 6.4147012480048 6.3465878050934 5.2044007773786 4.2784225760984 3.6447034278644 4.5697163797662 6.1351430347543 8.2775921693395 6.8757530102006 6.0778928083028 5.6962055716851 4.7471573077317 9.2602679144218 4.9111633199979 9.1147313403824 7.1402014470416 3.6595837776659 7.1532397398305 8.3575958792729 6.4714362956076 7.5613999680719 6.6003146222854 5.2197996494869 5.3375850077861 4.937437580375 6.7351215809966 6.6541861604027 3.6872207111468 4.4461931746021 3.8922603089093 4.8644233905606 4.3109823982868 7.9328982770921 5.1028174645566 8.1177639036585 4.3848732777778 4.6402341688599 4.8106001227688 6.6596894614943 4.1429090004764 4.0597863740382 5.7010726239574 4.6644076363519 3.582576374741 5.3302593829526 8.5660830510137 7.6568454405769 6.2908523089719 4.1630040798463 4.5308589752425 4.3486555429938 6.6977078912026 6.1802426853774 6.4492050968964 5.864121791306 7.5711967891202 6.9985071974814 4.9080966166587 7.1796631590729 5.1167704028993 6.9953946730653 5.1376888348066 6.6357234504874 7.291741047442 5.8801429639978 6.7458609441073 6.4223741602597 6.7328445420387 7.098429368316 7.2835603823948 6.1753124839556 6.8445693356859 3.9594501478056 5.2533101860974 6.9528724370209 4.1374908130325 8.3886217755584 6.2971475994714 5.5585822169039 5.6362727589958 5.7508972595902 4.789312519234 4.5940394819104 4.4827284547718 4.5621860347047 4.5656675713625 8.2985283483383 8.5262344266766 8.663676536104 9.6248152680383 4.3406554317496 3.5498031194516 4.7651478840723 5.1278682827818 5.341745521071 5.0549075777491 5.0796830339853 4.7730955073407 5.715744423252 5.6010826928536 5.5730178526672 5.4116003821479 5.722248715966 5.6805971281471 5.2393298452555 4.7534621188759 6.6117978753313 6.4912925291172 4.2358326643483 3.4087371509658 3.3206854627222 4.0220377911037 3.8566248175673 6.0934407244339 5.2273489141668 6.2494309809576 5.8488415504067 10.291722598353 9.8576977515667 3.740800767313 4.2166937175429 7.1198006139846 5.2210331598334 3.5960265281382 3.7622989863274 4.6942059599667 6.7944860324927 7.987553465572 5.8123067358778 6.9413297457227 4.7798686092465 4.9052181014845 8.0899149040693 4.6259810956354 6.3144621419603 9.0761204986166 4.430650973343 3.9535882018413 6.6621853441013 6.8981025660889 4.711287832238 4.1606230912086 4.0664381750845 5.7216760440952 3.8273345241184 4.5063968686405 3.4843771335149 3.3608759230504 3.8474887446501 8.3086038380538 4.3626305488166 5.1934006805618 4.2625528220648 4.9106850313076 4.0428362383196 4.9752035263111 7.2502354147152 3.4800323515991 5.7208841227645 3.3126238270153 3.6974001818014 4.7913418047807 3.9518156332698 3.7022452809399 3.7038424323724 4.1033550905214 3.8778802404601 4.2867674464894 3.6434903336317 6.3812085817698 4.7389816605705 3.5988180954281 3.865968456495 4.4328979453112 4.2760961145147 6.1007622185876 6.1291821443168 6.804754491348 6.3917508829579 5.6723171345085 6.0962316966433 5.2080031919623 5.6260195372004 6.440756952304 6.1018293666986 4.9363925198113 5.365757343523 5.2985057333471 6.5371613061543 5.8888938047795 3.3747642279746 4.2611682867021 4.9593280314814 4.0995369483722 3.9415909190914 3.742335015415 3.8852509469768 3.574120196631 4.1887110748799 3.6226006941408 4.1594026885948 4.41237873255 9.39471800429 4.0416814807882 4.7798691320666 4.6288372006559 8.3414422205454 6.6422034088977 3.5845747996134 3.5414647390582 3.3408845329356 4.1250813107842 4.6109977679582 10.828818205318 3.602121974997 3.8596711083674 4.1828025981176 3.314703470376 4.241316047133 4.8837284029927 4.4641773694529 4.3180369456808 3.7994738417194 4.4364362446732 3.9859625310818 3.5720675569485 4.2991407091062 3.3673515489193 3.5756933986154 4.1697751304503 4.0436441603757 3.2903679430531 3.5278389751215 3.2827523195123 3.4163318114666 3.3455107504494 3.2953699828179 3.4350555537683 4.0119274583841 3.9386559212708 4.9494293380398 5.1775545295767 3.5860625140635 3.3881392967251 3.2943217264356 4.1198807021451 3.3872399255996 3.3733346760554 3.3921283503471 3.3876281532061 3.4261481447385 3.7027036564519 3.4495634996633 4.1120263758124 3.2055193644413 3.4062620022882 3.8519364114701 3.7372385483069 3.2915615822363 3.2889404669479 3.3850750017869 3.4297294131209 3.3044884240521 3.3187922522581 3.3312736423132 3.4089841279215 3.4120464678298 3.3271039014385 3.7038938793345 3.3931332183052 3.4667132857741 3.2940898627664 4.1592569495934 3.2705570222958 3.4154688327689 3.2605882941915 3.2751365508229 3.3331090486021 3.3136146112215 3.4613586092851 3.4695200546169 3.3749163277263 3.9026609326895 3.3222280290364 3.6508428694174 3.2509481559832 3.2893730346175 3.4470816804734 4.1566354784231 3.5007620510288 3.4090657001183 3.239651327709 4.1646342903192 3.5519580258857 4.227193433116 3.6291905162733 3.3603096525893 3.4292613462766 3.380660692458 3.3006832827201 3.7604639690836 3.64356835634 3.5822047531516 3.6396370639417 3.7610314108011 3.6257555493625 3.8441503764841 3.2810163480013 3.5406557526771 4.4795950848369 4.0469882925526 3.8213916916074 3.4613648947471 4.0097225103011 3.2762734908902 3.7488702051581 3.5149058721062 4.100223140198 3.5384212371529 3.7447554142789 4.2155759667657 3.602938838909 4.1477735495666 3.783347415392 3.7763117114447 3.9704509826346 4.0664743396547 4.1573596048474 3.769881353062 4.0980020273371 3.5190503919962 3.4839316420029 3.4428909949683 3.4864217207937 3.6940266470534 4.0563917558157 4.1767741965862 4.0641284159222 3.7111278762193 4.0207417714452 4.0329837329423 4.2436589667401 4.5655715656226 4.3067188901324 3.6907528754212 3.5840600006609 3.5842338560988 3.8241831861695 3.9098838572963 3.4085881675739 3.6457860776745 3.9136908032903 3.5829327371116 3.7824258000701 3.5774735110961 3.9703731633756 3.9917039283328 4.1385116038193 3.9743335146196 4.3624471009752 4.3218640978792 4.1984281486035 4.1474618984635 4.1138603533221 4.2940692455113 4.2966447810155 4.3170958614148 4.27801854869 3.9289098580784 3.6258085231036 4.4327541928371 4.0305795046328 3.8129593358407 4.0232473277101 4.1674881209894 4.3118825808183 3.9654533310936 4.1370122981121 4.4195115780711 4.375359972517 4.4118090489229 4.4482262318702 4.1860985686006 4.4718180344716 4.4257244772158 
SCALARS 20.00_0.04 double 1
LOOKUP_TABLE default