# vtk DataFile Version 3.0
d-2__ created by libgimli-v1.0.12
ASCII
DATASET UNSTRUCTURED_GRID
POINTS 1303 double
5.625	0	0
5.511811217919	-0.146388704457	0
5.676386535709	-0.13519637448	0
0.25	0	0
0.175228502521	-0.179050409113	0
0.326009290428	-0.144330725415	0
0.375	0	0
0.990207725992	-0.114957291708	0
0.841075314552	-0.137634199948	0
0.926498288371	-0.349340723189	0
-0.001071200562	-0.386156929004	0
-0.003317641763	-0.130454088023	0
-0.192720422374	-0.216308252768	0
1.25	0	0
1.175215748534	-0.200562384647	0
1.341115762259	-0.128605193971	0
1.375	0	0
2.25	0	0
2.168494514827	-0.19848886597	0
2.338304607341	-0.128945294536	0
2.375	0	0
1.911268305082	-0.334701951691	0
1.986191885908	-0.110806668109	0
1.838390258011	-0.128853462534	0
1.75	0	0
1.670105949089	-0.197137117999	0
2.986685504441	-0.10889534818	0
2.838723720416	-0.127406828384	0
2.912854264006	-0.329775839393	0
0.75	0	0
0.664572693147	-0.222613872306	0
3.25	0	0
3.168798596028	-0.193682232199	0
3.337828500197	-0.125181208794	0
2.875	0	0
2.75	0	0
4.25	0	0
4.161099470995	-0.193412132741	0
4.332718836325	-0.127723897736	0
3.83511440706	-0.12403687807	0
3.875	0	0
3.75	0	0
3.901908238995	-0.321557035295	0
3.983050435256	-0.106770030737	0
3.665527023987	-0.190866765849	0
5.25	0	0
5.164693411436	-0.21656556845	0
5.338419985376	-0.147288917438	0
4.834321952324	-0.135810575609	0
4.875	0	0
4.75	0	0
6.25	0	0
6.178399669611	-0.137425451145	0
6.356205370496	-0.193853696818	0
5.817814980918	-0.161175429964	0
5.875	0	0
5.75	0	0
6.611939839541	-0.314381537706	0
6.522886280605	-0.104721203126	0
6.75	0	0
6.669178832877	-0.119404962711	0
6.836073690852	-0.177498311423	0
5.39059629209	-0.37339102075	0
4.660917359886	-0.204007052252	0
4.902096977384	-0.356327271651	0
14.897042426984	-0.319128540459	0
14.98121339776	-0.105010975498	0
14.832720105416	-0.123004000492	0
2.669265824618	-0.196872625129	0
7.656019919505	-0.144451020927	0
7.75	0	0
7.625	0	0
6.625	0	0
8.75	0	0
8.672937461928	-0.164309120831	0
8.834289374889	-0.109279841483	0
8.206809119751	-0.294811800109	0
8.187056112549	-0.110869448227	0
8.024316200302	-0.129362764133	0
7.157390904024	-0.111206354394	0
7.25	0	0
7.125	0	0
8.25	0	0
8.125	0	0
9.75	0	0
9.651145885459	-0.185384966231	0
9.827054067621	-0.122428024454	0
9.381816956327	-0.305807769915	0
9.476753337472	-0.101567493772	0
9.327490061855	-0.116748040282	0
10.75	0	0
10.655660803951	-0.196164841752	0
10.830485405183	-0.127989131147	0
10.386748323888	-0.329675548046	0
10.478464938155	-0.108955040137	0
10.328560245085	-0.126395562242	0
9.25	0	0
9.375	0	0
10.25	0	0
10.15270392044	-0.192469144253	0
8.328856990144	-0.128933011689	0
8.375	0	0
9.153857570119	-0.175508527296	0
11.75	0	0
11.660624577581	-0.201812344528	0
11.833823570609	-0.131890823957	0
11.395399221028	-0.337817920558	0
11.481219500696	-0.111845889235	0
11.331881500183	-0.129806070652	0
12.75	0	0
12.669299873111	-0.199190799603	0
12.839534650452	-0.128328673855	0
12.40897914742	-0.340185307353	0
12.485654611126	-0.112072117633	0
12.336727606385	-0.131188239877	0
11.875	0	0
12.25	0	0
12.164627546098	-0.202605127067	0
13.75	0	0
13.669268468008	-0.186168180444	0
13.837322273199	-0.120178339978	0
13.416957459915	-0.319650485848	0
13.487510959619	-0.105281058988	0
13.34010202956	-0.123833443479	0
14.75	0	0
14.66080663422	-0.189613659871	0
14.399926333663	-0.319306441484	0
14.4823067449	-0.105599641009	0
14.334114343934	-0.12250571155	0
14.875	0	0
15.25	0	0
15.158227025815	-0.185762723401	0
15.330441202311	-0.11956675178	0
13.875	0	0
14.25	0	0
14.163960939829	-0.186365139356	0
12.875	0	0
13.25	0	0
13.171786689458	-0.193064330135	0
10.875	0	0
11.25	0	0
11.158129238503	-0.198418008741	0
7.31587636932	-0.171642077952	0
15.3902841013	-0.308450173235	0
15.478958243586	-0.102394874489	0
-0.125	0	0
0.125	0	0
0	0	0
-1	0	0
-0.706889652808	-0.331752981492	0
-0.5	0	0
1.125	0	0
1	0	0
1.625	0	0
2.125	0	0
2	0	0
1.5	0	0
1.488007132967	-0.109900770852	0
0.5	0	0
0.474245721096	-0.130043839003	0
0.625	0	0
3.125	0	0
3	0	0
3.625	0	0
4.125	0	0
4	0	0
3.5	0	0
3.485533411273	-0.107014956798	0
5.67736414417	-0.368119689468	0
5.125	0	0
5	0	0
4.98353533542	-0.118243061674	0
6.125	0	0
6	0	0
6.009467825362	-0.139471566496	0
6.5	0	0
4.625	0	0
5.5	0	0
4.5	0	0
4.481603306259	-0.111052305129	0
2.5	0	0
2.486482293556	-0.110456056597	0
2.625	0	0
7.828740664136	-0.157959666613	0
7.5	0	0
7.497789303332	-0.098817221798	0
8.625	0	0
8.5	0	0
8.493725508365	-0.094448160765	0
8	0	0
10.625	0	0
9.625	0	0
9.5	0	0
9.125	0	0
10.5	0	0
10	0	0
9.976983002093	-0.106037154081	0
10.125	0	0
9	0	0
8.980258705317	-0.095443922293	0
12.625	0	0
11.625	0	0
11.5	0	0
13.625	0	0
12.5	0	0
12	0	0
11.983083448534	-0.113269018621	0
12.125	0	0
15.125	0	0
13.5	0	0
13.125	0	0
14.625	0	0
14.5	0	0
15	0	0
11.125	0	0
14	0	0
13.984735949845	-0.103165953766	0
14.125	0	0
13	0	0
12.987740386932	-0.109238757727	0
11	0	0
10.980033547654	-0.110118532971	0
7	0	0
7.012790729926	-0.096165366155	0
15.625	0	0
15.653391866104	-0.184257106926	0
15.75	0	0
16.25	0	0
16.151956269841	-0.190746813766	0
16.328162175541	-0.125534698515	0
15.827345422636	-0.12109528269	0
15.881623705918	-0.315197408181	0
15.9768075603	-0.104841845177	0
17.25	0	0
17.155473725888	-0.187015736188	0
17.328334720487	-0.12053442359	0
17.375	0	0
16.97978281674	-0.105790715925	0
16.830585534618	-0.124270763258	0
16.892220832712	-0.321708894118	0
16.75	0	0
16.655725821363	-0.19281499559	0
18.25	0	0
18.144056513649	-0.199584109463	0
18.322695877645	-0.133173012767	0
18.375	0	0
19.25	0	0
19.156955168382	-0.212194778097	0
19.332395147696	-0.137501625504	0
19.375	0	0
18.978107771567	-0.118463258117	0
18.827251646435	-0.137822523984	0
18.884674261801	-0.359498065923	0
18.75	0	0
18.648603260315	-0.210400354993	0
17.973004229039	-0.108213471414	0
17.823362138939	-0.124125311933	0
17.87020700187	-0.324156104502	0
17.75	0	0
17.64837652944	-0.187413016584	0
20.25	0	0
20.167288289523	-0.206556633625	0
20.33799343326	-0.133667464393	0
20.375	0	0
21.25	0	0
21.172020853715	-0.201327641466	0
21.340729826518	-0.130206344264	0
20.875	0	0
20.75	0	0
20.839555732676	-0.132066213667	0
20.987710400762	-0.112937783384	0
20.915843633601	-0.342386775443	0
20.669904108595	-0.203936882105	0
22.25	0	0
22.168893714495	-0.194483818359	0
22.337089427477	-0.126591453251	0
21.875	0	0
21.75	0	0
21.840184239699	-0.127666317168	0
23.25	0	0
23.162361450448	-0.215073727418	0
23.335945395372	-0.148199257458	0
22.875	0	0
22.75	0	0
22.83504078106	-0.133126573368	0
27.412614995451	-0.337768305098	0
27.406417478875	-0.760610856776	0
27.663031754041	-0.476449210851	0
23.674319496044	-0.139602731619	0
23.75	0	0
23.625	0	0
22.902876337082	-0.348446434986	0
22.664415839639	-0.19979598046	0
21.987454968006	-0.109075483352	0
21.916658702332	-0.330379709848	0
21.67241042914	-0.19774510361	0
19.984830323221	-0.115851903278	0
19.835879034474	-0.135573032779	0
19.906686139011	-0.351521653308	0
19.75	0	0
19.663378765328	-0.209646647928	0
24.75	0	0
24.672305039303	-0.121865624882	0
24.84054616259	-0.178479133746	0
24.25	0	0
24.125	0	0
24.179559510218	-0.145425217914	0
25.656694723316	-0.141492417978	0
25.75	0	0
25.625	0	0
25.25	0	0
25.125	0	0
25.159224348757	-0.109007087058	0
22.647257188685	-0.476376729768	0
22.872248033711	-0.780455516934	0
25.317652966423	-0.167196322239	0
31.908525182248	-0.237434634112	0
32.248547795208	-0.367887731521	0
32.025	0	0
26.398062594932	-0.327144710524	0
26.335089901602	-0.124890632532	0
26.169730315141	-0.188549564961	0
26.75	0	0
26.662500836065	-0.197477656933	0
26.835401004001	-0.129534360312	0
26.375	0	0
26.25	0	0
27.486869476066	-0.111474770432	0
27.338367230812	-0.130187170762	0
23.816158307302	-0.168335740772	0
23.875	0	0
24.625	0	0
27.75	0	0
27.67023663024	-0.198727549038	0
27.839431305592	-0.128541986375	0
27.375	0	0
27.25	0	0
28.75	0	0
28.666013303123	-0.192953151514	0
28.835335299513	-0.125393524551	0
28.875	0	0
28.41074998604	-0.32692743598	0
28.485854239984	-0.108071323096	0
28.338261561589	-0.126341817439	0
28.25	0	0
28.169650699531	-0.195402875109	0
29.75	0	0
29.656991685033	-0.201213204108	0
29.830700495316	-0.13323291855	0
29.875	0	0
30.75	0	0
30.665605116896	-0.213760177502	0
30.837855425721	-0.139272404211	0
30.875	0	0
30.987248292653	-0.119871959545	0
30.911614165903	-0.362389547989	0
31.25	0	0
31.174363802618	-0.217041176186	0
31.346460135447	-0.143418487957	0
30.400599561582	-0.360265197586	0
30.483280501431	-0.118794220148	0
30.3336351656	-0.137924489201	0
30.25	0	0
30.159375273254	-0.21004086356	0
29.392934647931	-0.331414044449	0
29.48031118177	-0.110263057575	0
29.331777210358	-0.127344913482	0
29.25	0	0
29.160548153072	-0.194064979946	0
27.167334579456	-0.200440763045	0
24.359650796728	-0.20304719459	0
-0.25	0	0
-0.404335947278	-0.221464959739	0
16.125	0	0
16	0	0
17.125	0	0
17	0	0
16.5	0	0
16.478267427857	-0.108008273171	0
16.625	0	0
18.125	0	0
18	0	0
19.125	0	0
19	0	0
18.5	0	0
18.473681471998	-0.115768873419	0
18.625	0	0
17.5	0	0
17.47687846862	-0.103462148239	0
17.625	0	0
20.125	0	0
20	0	0
21.125	0	0
21	0	0
20.5	0	0
20.486446843971	-0.114298370976	0
20.625	0	0
22.125	0	0
22	0	0
23.125	0	0
23	0	0
22.983281399654	-0.116385827149	0
23.5	0	0
23.509214189908	-0.149359691049	0
22.625	0	0
22.5	0	0
22.48467632496	-0.1093719097	0
21.5	0	0
21.488472844532	-0.111208801785	0
21.625	0	0
19.5	0	0
19.482219828947	-0.117572233456	0
19.625	0	0
24.5	0	0
24.525433875838	-0.108080714825	0
25.824234283709	-0.149177038136	0
25.5	0	0
25.498573523516	-0.096586408813	0
25	0	0
25.014769107289	-0.095147895568	0
21.919931345447	-0.741308582321	0
22.160361550711	-0.463896476278	0
26.625	0	0
26.5	0	0
26.482631880244	-0.108512805864	0
27.625	0	0
27.5	0	0
27	0	0
26.984612185119	-0.111680714924	0
27.125	0	0
26.125	0	0
26	0	0
25.990349817319	-0.10847866492	0
28.125	0	0
28.625	0	0
28.5	0	0
30.625	0	0
29.625	0	0
29.5	0	0
29	0	0
28.983089608831	-0.107750428826	0
29.125	0	0
30.125	0	0
30.5	0	0
31.63125	0	0
31.5	0	0
31.494696987447	-0.123712578064	0
23.671261205816	-0.380102168636	0
31	0	0
31.125	0	0
30	0	0
29.980228243528	-0.115525062547	0
28	0	0
[...]
CELL_DATA 2263
SCALARS 1600.00_0.82 double 1
LOOKUP_TABLE default
8.9436835524326 7.4080105409176 7.4885410654904 8.4576478294695 7.2428071395294 8.9427724424837 9.0358634832165 9.2502785715402 9.2386441888455 9.5026168026456 9.6686848648803 8.7039760267771 8.2859077359267 8.1131256217941 8.9710605417833 8.7442527849803 8.0509805126862 8.0944117396012 7.9950067468544 8.7867580612841 8.9114440433097 8.4794603098381 8.8206163039041 8.2316313925318 8.1288125036285 8.7927618596646 8.890283324178 8.6835794862905 8.8409727091165 10.003473264288 9.0206699436382 9.3705978008372 8.0844568418243 9.7169197766 9.3918377306864 9.082991739335 9.3469132207142 9.8707225907518 9.0386502288799 10.299654246977 10.216305740865 8.8868936321976 10.258675959973 9.432896120238 8.928501840426 9.6612167248229 9.6888086286951 9.5530694950824 9.2946822934574 9.6122151545143 9.4718885654734 9.806634082157 10.052679987221 10.562334400556 10.34017005604 10.459292158624 9.1199050150841 9.7909354687113 10.298258510748 9.7027858196227 9.9009710710421 10.342020314108 9.6405185170825 9.1537389477046 9.0324288257496 7.2871838861662 7.2682246717686 6.5643975111544 8.8704566999077 8.7226554184409 9.6834622713036 9.5859651221304 9.5202786978898 9.341958739131 7.9955367004607 7.2971048110792 8.247639704499 8.6173763870715 7.9910957142656 8.4400606971869 8.0496300610569 8.6694195146819 8.7913971620905 8.89160990002 8.846010309076 8.7547773220792 8.1860193018899 8.8293169273063 9.0172529271604 8.8367963953171 8.8967073127269 8.7735995414674 9.3269286922165 8.2041452249173 9.3818053335311 9.4190334552405 9.3778065307165 9.8588400043549 9.4474524422768 9.8216727423713 10.328352704923 9.4799195577481 9.0399391671931 10.426163878253 10.140695826505 10.215962227733 9.3837002081698 9.8249644479481 9.4574064932806 9.9212928162209 9.8516257489731 9.4333120524443 9.66140320539 9.5635017779106 9.3157280374679 10.092018553577 9.8201039648547 10.81607395473 9.8335291508576 9.7218407618692 10.283773057624 10.346837379634 9.839803906443 10.804065828535 10.083974133305 9.8080228907446 8.8502795204636 9.1653809747916 9.7059885285448 9.9258134734169 9.6738433187379 8.9733476735803 8.9262582896831 10.044447672859 10.324436085331 8.387173001864 8.342328150132 10.116351573402 10.28520034115 9.2594382495132 9.1679489466668 8.9407530005338 9.1672383338821 10.622221625507 10.638961850517 8.8867860848183 9.8533005893471 9.5022346315794 9.908738717612 9.2888980814945 9.5742572112221 9.0183885831563 8.9270361324043 7.4043779248761 8.8526270503899 8.8675711444511 8.9309256296713 9.4203642773372 9.4909440970389 10.183969440701 10.019962233607 9.1476053276894 8.3903187010282 9.1658291888769 9.054530856272 7.8660318564689 9.0207898720893 5.9856318873389 8.3936758222246 8.2072060638953 8.5187456204138 8.299569863174 8.7853793962346 9.1151143123027 8.554740715191 8.7570187112363 8.32882911428 9.1127558260871 9.1430056081158 8.9586300825036 8.913083925473 8.7584189074673 8.7371767918296 7.3084226732317 7.2012585682752 7.161079294865 6.7694774301705 7.7878176231654 7.854661096901 8.8363007455085 8.9330141570922 8.2817103711271 8.3945938484103 7.0137169572189 9.8526336702892 9.8373959220587 9.6424353298483 10.307035108032 9.7770405423207 10.335680496811 8.8397126383769 10.017521967615 9.7707777695198 8.7911077526747 8.5127932389037 9.3517083967753 9.0540997231229 9.3123241106461 10.682107358457 8.9386629454647 9.3434889794977 10.490341576243 10.720526654926 9.3373933228284 9.5405167174344 8.7952429815379 9.2224892745054 9.0140083094114 8.9911803948162 9.247240560826 9.1303131470392 9.344084250367 10.112976718838 10.223082536837 9.0787320703904 10.001855443194 8.9877895052581 9.0474016532973 9.2721265745165 9.2328913146183 8.071217946422 8.2949239163302 8.4722272118377 8.7183484191742 8.5933643887772 8.3161081334495 8.671589298439 8.8942097090205 8.8878720148009 9.1611633078951 7.4561363616199 8.9675225831432 9.1531435631884 8.863258951206 7.9453107533153 7.7330543175998 8.2983390751115 6.4333744842768 8.6751565045957 7.1473273196261 9.0051679900308 8.2977349158134 6.9341468271033 8.920082914157 9.133201606896 8.5892718567251 9.4757109083129 6.5226590544844 9.4016366697108 7.2771242207213 8.4099642225114 7.7951919900371 8.788737662793 9.3213559139161 9.4392643845608 9.2916635223986 9.5921831435012 9.7010168680848 8.1145429363865 8.600675936248 8.4129645124566 8.0521780056716 8.5299119061096 8.9807603213727 8.0042223605422 8.2783376349934 8.8097655388715 9.0172511842062 8.2952030471113 8.3270728467631 7.4854405411136 8.6160055914891 8.6790444559905 8.7988329785629 8.8247520497343 8.9939793559324 9.2376574070716 8.7978995828768 9.5470997603453 9.8720132187209 9.5251960233606 9.3625807039908 9.7028020381023 9.656378503158 10.116663546328 10.341747784359 10.310041882628 10.128897519899 10.499388121435 9.2120244167301 9.1170865876978 9.8871089104458 9.6077338857878 9.3876606179948 9.9217324941175 9.5839201125491 9.5095565913657 9.9933312263767 10.031912213045 10.826683879766 10.102126258802 9.5353594837116 9.1588383395605 10.350979055073 10.519211225345 9.8089291801722 10.159286352723 9.893825454128 9.7677603278168 9.6288414716811 9.4569065952087 6.8729394552023 9.5142323447517 10.004438497642 9.7787094150555 10.29489547096 9.3262085668266 9.1295375891923 10.283586337469 10.154184437738 8.6763994588552 8.5176176430619 9.8413266132459 10.424676502734 8.9208636379421 9.6301581971955 9.3839420837186 8.958034748258 10.697672390495 10.60250910919 9.1063076527419 9.166135318072 10.264807070461 9.6338268470826 9.4140798101218 9.3553526109671 9.1845936115764 9.0393044415234 8.5637293576333 8.7356919028202 9.1166798286812 9.0944067301859 9.3991652305754 9.6510539942965 10.074205756041 10.453412700418 9.2294171797915 9.3381576065116 9.0758368664741 8.9257722268258 8.9080085466571 9.164085031018 8.3758020044864 8.2570881335665 8.7717790992568 8.4965750938623 8.6260631584358 8.964200097915 9.1335285815818 9.190173481706 8.873417742539 9.1341233480774 8.9006849672917 8.5537952043332 7.6210145290273 7.1115472960083 7.0588778739649 6.4897365123609 8.1060787334211 7.7773575644036 9.0680803237795 8.9471429811658 8.292006849066 8.4915734014697 8.4109465755828 8.7960784635917 6.1511984483519 7.170993638851 6.2509776365094 7.3585299120536 6.3422100316381 8.3851720786598 8.3698379990454 8.7959010644449 9.715916279234 8.0633310333646 8.5765263845232 9.1152792296873 7.9055556921249 7.6982894682867 7.9367782900953 8.8627053861852 7.8951265784106 8.8476003192415 8.4418865151143 7.9901133666694 8.5807298655893 8.552954454528 8.6925746704945 7.5882191715554 8.7197770568826 9.4518635377841 8.8045497570123 6.2553426807187 8.2066075568208 8.7217067140374 9.3392365912678 9.1436582925621 9.29547587676 9.6622259898782 9.7165356611128 9.9725090616518 8.7432452380552 8.8521991104254 8.9328635138564 9.5805589363444 10.368346086074 9.1577222722448 9.240112074904 9.821248745612 9.440550217022 9.5620050350277 9.6130797817826 8.8067071002029 9.4968899586203 9.66748202029 9.688078710232 9.46498100916 9.9919848012079 9.7364262778239 10.301619414932 9.0533564973597 10.41028433805 9.9197515163084 10.024625178111 9.983784474681 9.2041433084866 9.6778886426026 10.141430075973 10.159356775409 8.1690857220814 9.187492745292 8.9565658553861 10.059207535018 9.107094397015 10.005111993895 10.383972495327 8.3101956477639 9.5782172544861 10.004131719439 9.0954233495628 8.8287961135691 9.3128801448913 9.5328668561238 8.731938642779 8.4278021810704 9.6612527780354 9.1509052614106 10.09589306591 8.9095827171518 8.6058572804084 9.3116531591113 10.263885820537 10.329444007819 8.7511856486258 9.0097900682867 8.8858945680014 8.6737509088078 8.9683372134845 9.0612306318074 9.299615295578 9.2196808104487 9.1775984547143 9.0041698554034 9.3678263544556 10.060355456227 8.9587347298144 8.9935903795636 8.3351043746419 8.1931447762486 8.4004559024111 7.8016443796615 8.6353979244891 8.8506180678762 8.9002840353541 9.1311387759724 7.9917684650176 8.5764365681033 8.981781946523 8.330985114975 8.3470423196923 8.7443284546509 8.9223286696856 7.3975782717772 7.8057833270315 6.6635578171247 7.6795265873992 6.0651243089097 8.7555024652431 8.4806472284244 8.9595024714043 9.0521282656652 8.404796921268 8.0772338481427 8.7655404871989 8.3844730542178 6.7249326331696 6.7277269309073 6.7948052472946 6.3917554749276 7.526439311742 7.6347770463389 8.9102718226434 9.1409559615156 9.0868844147044 9.243267244365 9.4234943720041 9.6951921694536 8.2770453877078 8.4634732080631 7.9871228262483 8.0451645858545 8.5580141913907 8.9040987754628 7.9390621541877 8.1284499549634 7.3334831258905 8.9193536854037 8.781172368845 8.4410555622128 7.0675661187841 8.2275599679199 8.3929411004705 8.8026178351433 8.1908209164102 8.945992641679 8.7471495965912 8.8845028710017 8.9858929368467 9.5063697278179 9.2548097048674 9.6027047761385 8.3892003025679 9.5586087751279 9.6421884232862 10.005021816262 10.088625906867 10.334196765108 10.038003649582 10.411994546215 8.9410299908306 8.9572455934071 9.4386533179121 9.5796059793474 9.4499470238014 9.8028834237733 9.2076321714964 9.4755144740358 9.8601519696378 9.8879993483932 10.111730088951 10.2732163796 8.982481940531 9.0546465756915 10.198493337438 10.362449085876 9.8878885775127 10.089104869945 9.6124440526384 9.6744935978616 8.6936933545181 9.2902762833543 9.4968455341284 9.9344562602134 9.7919187927818 10.153635761919 9.0956586062637 9.0218579682689 10.031798415649 10.310308220926 8.3498069878334 8.3928047269381 9.8249472052708 10.340466690881 8.9909101049491 9.4202378020633 8.994587136456 9.0264357337302 10.248626277438 10.597061963447 8.851936667507 9.0058756488571 9.5397215110809 9.7477627846481 9.1395338943013 9.3333044676598 8.5269073793468 8.9956117703016 7.2607535897534 8.7496969389786 8.5945972775374 8.9916915103051 9.2788690770745 9.6011567670257 9.9408914721011 10.236127507304 7.3914413919962 9.2617782558531 8.9336775558542 8.9375855618573 8.1013683671055 9.0138526413119 8.2870725048298 8.2026481902608 8.0628793156457 8.4941375854381 8.5878867746683 8.8885457237799 8.9728022762449 9.1561923920134 8.8148794350359 9.0406845890397 8.5235658669375 8.6531557827523 7.2462271641463 7.1552581699017 6.6349145950657 6.5756405608496 7.8176215642427 7.8007528826671 8.7995350844566 8.9183607530075 8.1570958695112 8.3764618595647 7.8471968688625 8.4791534664532 6.8951195589357 9.2445332856966 8.1449337946039 9.0504346914071 8.7197066937412 7.916565118237 8.2869661571117 8.8567327779028 7.709257152078 7.7881231054319 8.3922018941161 8.65486434179 7.9967328235849 7.7507850617078 7.8043307287604 7.6152677599525 9.4141260590646 8.8788108416573 8.5068521621631 8.9431614012672 8.3198813658244 9.3762491066159 8.0297581822547 9.288454305339 9.4120323636319 9.2552922688654 8.0759304590629 8.4950916452596 8.3971386048568 9.5185445357807 9.3776946202439 9.8126138002085 8.0687843157076 9.3425192898844 8.8143857741597 9.9529936114319 9.5828162965275 9.3531618445085 9.0346422833747 9.312079404331 8.0524835398086 7.6256264585662 8.348758072705 9.6925862603395 8.9009706956573 10.118561871145 8.1480733804208 8.7897691985201 9.1512789386533 9.596558974502 8.7485859978647 8.7425734032367 8.7810679669626 9.1098591079467 9.1059571009903 9.762936890972 8.4392240428701 9.3540060439743 8.8633010669739 9.4360545946288 8.6266754777019 9.0284659885158 8.2530823857957 9.2153105508936 8.3045276707381 9.242821190684 9.0708692347536 8.5519353176256 8.586329788818 9.4696226405108 7.6878891536987 9.9297242005228 8.9781018358109 10.071039233806 7.7734732320436 8.2130889043079 8.5911461966435 8.8963809399275 8.5490981800833 9.0861622207526 8.5225448984517 9.0904889339897 8.1855947383464 9.2084017917335 8.8916009277693 7.507880398017 8.7292196200486 5.7337993884612 7.5318836045961 7.3752013751454 6.8263772577727 8.323642948875 7.4006001764008 8.6425746101714 8.2342847724077 9.2838888687133 6.8413983437025 8.7059836414924 9.1510773519987 8.1399574552097 8.7575762506579 8.4529373614043 9.021296498424 8.7127555061191 8.7855525509448 8.190810527527 7.757958656898 8.9719824080184 8.5921706067276 8.2271573929263 8.0762905330201 8.3370597730716 7.7404447545568 7.0557054295426 6.914297956872 6.3888400170876 6.4228418272322 6.000727443404 7.362999518218 7.872506444847 8.0905994216564 8.5635294577722 8.1316858685337 8.7869334691905 7.4197295665072 7.8437654893819 6.4344874120383 6.8638674115356 8.1411789192366 7.2989431000388 6.9718143412986 7.8045371623017 7.011675166995 7.348367632265 6.2257841063251 6.6527907797815 6.048268383146 6.1162177769858 5.8934532254666 8.8997019865895 6.8496671311222 8.4911324394782 8.2374144650094 7.921985778308 7.8737170787567 7.0279815762196 7.6506104674189 7.6196087298291 9.1700511438213 7.3169275487626 7.2517441756634 8.0951877180469 7.9998284099799 8.7450684885289 7.7898689620455 7.6514064678872 9.3867031589865 5.7094780356638 8.5000577134176 7.2556007489145 8.2134364116047 7.7214642465218 7.5645963310338 7.6407260792657 7.9803827032427 8.1191849519407 8.7316695305207 8.0438523358379 6.9528440588018 9.3951928784173 8.6015352473628 8.9363835164809 8.8167964304013 9.3127171334195 8.2430332391394 9.0594749271787 8.4881843634813 8.7424245008828 8.2782583943411 9.0614698298031 8.183214765446 9.626571688542 8.8445629725499 9.7654731570908 8.5445287684235 9.6424187873709 9.1809334255505 9.4476849232309 8.9448385270934 7.748730797944 8.569369744861 9.3420948054263 8.6809883475084 8.2048257779254 7.627712792861 5.4089309751615 7.7779622490706 6.8387306421234 8.5979929568837 7.8807661064089 9.1954723902049 8.227207422439 8.7850112924808 9.4930022458604 7.9990457797269 8.3991067258052 8.6936772185631 8.3283991807319 8.5963618536364 8.1770935927009 7.9388939922393 8.7861120002847 8.1848101268991 8.1667332404042 7.1498150134538 9.0585155532752 8.43070685116 9.52003966317 8.0539791539153 8.5169378013471 7.9323419352888 8.7178163624615 8.2213552838393 7.9613627695371 8.6792925079075 8.6918529921492 7.4069730948465 6.1363478359752 7.8008333561215 9.3169065930825 8.5299738915483 7.4326107230497 7.6301232530699 7.8605757464035 9.1058531390249 8.7183838752678 6.0010645007483 8.0235813647359 7.9325457579091 6.0758265411087 7.7803911310848 8.3907323207403 6.2279877087674 7.7387749918119 8.0127040240553 7.2561309602997 6.2192508929591 7.7508513597709 7.2356309144355 8.2524441899613 7.6179804924508 8.515728545738 8.0129473416483 7.6009702778324 7.1727504459344 8.1127614923048 9.0516893050959 9.129312392525 7.7331538062191 7.3642492958863 6.7236966112733 8.3631973510127 5.8856749527309 8.2436011457606 8.5067588156098 7.2685320709519 6.5462653063392 7.2095052449166 5.5577249794326 5.8073981177395 8.4524963388767 6.8482418306184 8.6739490252759 7.1010694550523 6.6313902805056 6.8262867518172 8.6252318679682 7.6602878059575 8.0308372812236 8.6148909617767 7.8933538749057 7.001656494347 8.6494910715149 7.3620390133818 5.8507827376909 6.4526453880505 6.7107112829029 7.8271529497603 6.3932016584516 8.473808010371 8.57116362624 8.1148864253682 8.3820034254417 8.8092923594608 7.835084450474 6.0129955828341 7.5582352614539 8.2466623375543 5.6870796618204 9.0564595446747 7.7660847735029 7.1790950565653 9.0526138843196 6.5158067947985 8.5600165473338 6.0970854401812 8.6093303420658 6.6136979518888 8.1967915435466 6.0420074787128 7.8931011127525 6.1005805098126 8.8348640326885 5.3854166765682 8.1584159005711 8.0035353789611 5.7025649074323 4.0304944167732 6.6244207862167 7.4058052063299 7.2119496904389 6.4041418310097 8.1104675123635 6.7435432014871 8.7433859111959 6.5746893956792 6.2708149103209 7.8971452557076 6.4372076380073 7.666210932438 6.2533302124422 6.8801811331465 7.3621052855356 6.4096714981069 8.5115026543324 6.6554331702829 7.8927279178575 8.4452697704845 7.1009865570341 6.2552782961564 7.3594894656533 5.4897989781311 8.0436440844817 8.2400415955557 7.4640408790945 8.2528107367251 7.940809624849 4.9936574189665 8.075067038466 6.1472519307819 7.8498961902461 6.0309301060951 8.355278877197 5.9238650837683 7.7270616061221 7.8221993840368 6.0757698778088 7.2550555424617 8.0037293067281 7.619126195963 7.3169734611174 6.7470872704162 5.6850403076778 6.8431274012317 6.377079150299 5.9220638313816 7.9496347125247 6.3146899548173 7.4635343760866 4.9995907936265 8.0992388881562 5.89024617255 7.6482786335131 8.4564597799529 8.620661672691 7.5348571958799 9.3145493775201 7.0422214256415 7.7363185471774 7.2992442924459 6.5108697789854 5.4768760235867 7.1960856137808 5.7445905734841 5.2943593616826 6.3594544730663 5.6409042167278 6.3819646915684 5.5246425524243 5.9982187660956 4.4733103641766 6.297178269473 6.0592705615519 6.2748901601238 5.7980646700205 5.7982040672552 5.2434937183068 6.2199124742311 6.1024929235033 6.4114803775119 6.143391282778 5.5518847636916 6.3318887810497 5.8357318294186 5.7626037784531 7.6586114135483 6.4584309819422 6.0252992726398 6.1652532545733 5.9643244639235 6.6518625044531 5.8748586520493 7.5647545915032 8.1554602490855 7.869438351923 7.3217237890332 5.6792763944662 7.0497496035322 6.7344188755312 7.9993851158152 6.2982478333328 5.6727704122176 7.7223984398542 6.3617802440385 5.4721221519858 6.4206474544981 7.0621842689359 5.759518893545 5.8263895392449 6.4093331570606 5.9103191629549 4.8372907621539 5.8323717629994 5.4117915835472 5.4981716119617 4.8491774840267 4.8831743402182 6.3709387010837 5.1935341881493 4.493381860022 4.2512453122634 3.7771104588188 4.5011596809841 4.7497829239193 6.8653614372155 7.1732159528689 6.5465470356386 6.7108416674427 8.7919850247467 5.617296407199 6.3382097265941 6.105010913201 7.6680096511995 8.2381730292214 5.6824728320384 5.9248431099452 6.6214250251386 7.7742142053362 6.2237409056155 6.0406485924736 7.6313336383104 6.4011055164369 5.176726832329 5.6237031585619 5.8169618489179 5.4293346913909 4.6670730181805 5.4901758256849 4.952305362171 6.0957887058309 6.5524252203005 6.5228954192441 5.3339250211887 6.2676986560515 5.7406602827146 5.5334498574535 5.2749541470007 5.3751966544968 5.4507172960819 6.679359728504 5.4636920907329 4.0166380874402 6.7597970709074 5.94754019001 5.1118266343187 5.1211045162376 5.6450337590638 4.9004473721512 4.7584735578337 6.127160544444 6.8128626005561 6.8662204754541 4.8625240999385 4.0450094833739 5.3353472259528 6.2661242862117 6.269119906127 6.2886827519298 6.5444155973024 5.6186793165719 5.8176057872991 5.0586290638757 4.8983092463347 4.4539371785477 4.8753095636375 5.7129842605276 4.4060290026602 4.0293588709764 5.128780931774 4.350633273197 4.7123804895812 5.2983058435625 4.8868248941284 5.6068769848843 5.5109732722213 5.8774344021581 6.3707552822289 5.5845335094177 5.961075144687 6.5145191252495 5.3064096061941 3.4498371684921 5.6345364019235 5.612532667843 6.0991815172821 4.881001594689 6.263066275617 5.9218210144947 5.942520989354 6.0378086651203 5.3232929502003 4.6930061985064 5.6198222065562 4.7898415617594 6.7436300559312 6.6839621538478 5.0220518840587 5.8057887657243 4.8468069784721 5.7728495586442 6.3171438490976 6.6344983130489 4.9746851110457 5.3664951275991 3.8314494507676 5.1514123545723 4.6501752821176 6.6395894694538 5.4745176018822 5.8180338966087 4.9991708018972 4.4748006368149 5.5804729429501 4.9309939164633 5.7110146701967 4.3936586146208 4.4506915027366 6.2092764768601 5.1979060830081 4.6589349084118 6.2063194011665 5.3329225101258 6.1278821409665 4.7384671027853 5.4346840070178 5.3645521814266 4.7775249585655 5.5681699658887 5.1227769254318 6.6551997039843 5.7977355194193 5.5647191925789 5.4350678480914 5.6866879051772 6.0808139789886 6.1507227954284 5.4887959278654 6.3488444082653 5.685798975649 4.811298212528 4.382121062786 4.8442262360288 4.9792143283947 5.0236848139785 5.1078419626947 4.3799397558669 5.8135301074447 6.2154266737179 3.4776540021864 4.6812752863283 5.5868241691592 4.5051290125009 5.8500392652501 4.8547102228181 4.8150550569761 3.94565520886 5.1883216038454 3.9666903553757 4.0760520009641 4.9133458070935 4.47189196995 4.9994094622724 5.8018980369232 5.0743765707076 4.0833778813422 4.3087096048866 4.791036898825 5.2446265763921 6.3396436412847 5.4721549465666