# vtk DataFile Version 3.0
d-2__ created by libgimli-v1.1.0
ASCII
DATASET UNSTRUCTURED_GRID
POINTS 570 double
14.5	0	0
14.25	0	0
14.386963504964	-0.201738469428	0
22.399299936458	-0.310870122736	0
22.129824335287	-0.229914148082	0
22.126320781198	-0.518791771445	0
8.472303742627	-0.591754876635	0
8.780507935475	-0.76092407121	0
8.82173151259	-0.349253271447	0
18.663262297679	-0.667179415955	0
18.934786529245	-0.453308328646	0
18.636898038907	-0.29588182328	0
4.016904362632	-0.85330676142	0
4.076038737616	-0.331410355179	0
3.713721571226	-0.470767763626	0
1.89953779852	-0.269343012166	0
1.633800503821	-0.203067612233	0
1.644492760828	-0.441295523531	0
4.368408037607	-0.250833874131	0
4.337474161742	-0.544420985055	0
4.67745607622	-0.378433532554	0
1.406172533733	-0.772361039307	0
1.913288206557	-1.218576310882	0
1.90687689783	-0.651895683444	0
2.5	0	0
2.25	0	0
2.347047126858	-0.185539804102	0
1.374000926997	-0.300418771701	0
1.25	0	0
1.114902662369	-0.201591505098	0
1.067401015567	-0.470108640981	0
5.75	0	0
5.699780065382	-0.324747799653	0
5.924584257371	-0.172748359932	0
0.883560935405	-0.231136840652	0
1	0	0
9	0	0
9.117836368049	-0.253904480787	0
2.625577516194	-0.346770599322	0
17.859079774019	-0.943547525024	0
17.535029634209	-1.703182852412	0
18.338018094476	-1.366069799339	0
19.932263871771	-0.826489183604	0
19.881635677668	-0.346204516721	0
19.622287080959	-0.573770479943	0
1.5	0	0
1.75	0	0
23.25	0	0
23	0	0
23.109690227386	-0.220340974338	0
2.75	0	0
2.142562771237	-0.172460438312	0
2	0	0
23.332392704446	-0.202507275941	0
23.5	0	0
19	0	0
18.75	0	0
18.888143078348	-0.195773419804	0
2.90152418742	-0.185685383897	0
7.612175045312	-0.180627982114	0
7.527150943175	-0.401430797998	0
7.881917737402	-0.30462800112	0
25.630635194756	-0.512020961038	0
25.243766894324	-0.80097755811	0
25.758031115142	-0.952821630144	0
3	0	0
28.84859809239	-0.201276387394	0
29	0	0
28.75	0	0
4	0	0
3.835807353334	-0.199536243303	0
3.106904732949	-0.178783649348	0
29.25	0	0
29.092446172194	-0.305987136665	0
13.5	0	0
13.667851890428	-0.185102765244	0
13.75	0	0
3.75	0	0
14.407363653886	-0.441423674912	0
14.125469935998	-0.279652141152	0
4.25	0	0
5.061980176718	-0.407989246181	0
5.335512032876	-0.269401530321	0
5.113979852892	-0.173834924157	0
11.882046000841	-0.812345557852	0
12.478640631525	-1.146569360669	0
12.244190771573	-0.565936619511	0
3.633270844505	-0.195395238442	0
14	0	0
18.378272976509	-0.514977451159	0
5.5	0	0
9.619519097921	-1.16461851757	0
10.030576753886	-1.587265312651	0
9.961661342999	-1.070235523667	0
5.25	0	0
5	0	0
13.157975569138	-0.830425793913	0
13.83833027638	-1.238601004239	0
13.671302359608	-0.710707966059	0
11.325917093147	-0.8366783502	0
11.612143285947	-0.506264798476	0
6	0	0
7	0	0
6.83842404292	-0.188923754932	0
7.11236984822	-0.391746146843	0
6.631875629497	-0.169178192832	0
6.75	0	0
3.21002197083	-0.595267231049	0
3.445510026908	-0.608065324465	0
3.362318141622	-0.306501255187	0
6.120159502895	-0.164221934939	0
4.538525595924	-0.906226152762	0
13.233775457127	-1.737244787017	0
4.5	0	0
16.138065841822	-0.472802517973	0
16.126746690205	-0.221608117926	0
15.859319180798	-0.326402762318	0
26.080401003391	-0.227842452866	0
26.25	0	0
26	0	0
3.019224421113	-0.401469974918	0
8.234901607028	-0.35771789179	0
8.518285578354	-0.242327591839	0
8.328777073389	-0.153008859619	0
7.25	0	0
7.400656881666	-0.195280611572	0
7.5	0	0
5.385509485898	-0.709154879541	0
5.948697127931	-0.745234910621	0
8.75	0	0
8.5	0	0
8.25	0	0
2.214249105773	-0.404278959534	0
2.896561357202	-0.792481120253	0
9.25	0	0
4.920911116561	-0.192028847294	0
9.651670336652	-0.200847798694	0
9.849824537955	-0.19917205686	0
9.75	0	0
10.095049354068	-0.315754204277	0
10	0	0
3.25	0	0
6.738406513564	-0.710129601907	0
7.121614580011	-0.943026074581	0
11.345829942703	-0.314788260019	0
11.25	0	0
11.104427225455	-0.188863495516	0
6.052412255932	-0.372556729023	0
6.373371846535	-0.274163514827	0
10.25	0	0
10.380281579003	-0.241092027437	0
10.5	0	0
10.75	0	0
10.909079077441	-0.189427130481	0
11	0	0
6.25	0	0
6.5	0	0
4.75	0	0
3.5	0	0
10.672815698565	-0.318467932684	0
10.772487906066	-0.787092734739	0
11.020900486567	-0.439266778492	0
8	0	0
7.75	0	0
11.5	0	0
11.619450354736	-0.231443672836	0
11.75	0	0
8.139317726831	-0.163309591658	0
12.25	0	0
12.158949464947	-0.235415698299	0
12.412455385193	-0.275030800337	0
12.929165084344	-0.221336108042	0
12.686337592177	-0.258437422252	0
12.900449535554	-0.462768612232	0
12.5	0	0
9.405755833308	-0.325979504745	0
9.111697192308	-0.594170467817	0
9.457257345083	-0.753685223931	0
18.101369157139	-0.618560521812	0
18.336839281097	-0.861122419318	0
10.385948631267	-0.570640149046	0
9.5	0	0
13.411260455969	-0.342646276848	0
12.643108055516	-0.590179775368	0
13.137744715761	-0.195204172124	0
13	0	0
21.25	0	0
21.358341816502	-0.326561417551	0
21.5	0	0
13.816492716597	-0.40394453634	0
20.25	0	0
20.423452336785	-0.313445603959	0
20.5	0	0
17.789350393153	-0.390447709085	0
17.987794057246	-0.401472255242	0
17.881276545163	-0.206424156589	0
19.564465692234	-0.270867872644	0
19.290725118801	-0.49926248604	0
16.392319441256	-0.29915360323	0
19.443730892406	-0.923508713428	0
20.457987075478	-0.803203365193	0
20.167450719332	-0.505159975143	0
0.103762538371	-0.253013629949	0
0.267057015134	-0.483604909932	0
0.374713194419	-0.2320817565	0
13.25	0	0
17.415572543912	-0.230682214253	0
17.5	0	0
17.25	0	0
18.108153655084	-0.208141099276	0
18.25	0	0
18	0	0
15.75	0	0
15.544586046819	-0.246453491997	0
15.122708481244	-0.193620038745	0
15.25	0	0
15	0	0
19.75	0	0
24.149237782749	-0.319013340846	0
23.842766599446	-0.577371105011	0
24.183995039967	-0.73159476451	0
13.871646321742	-0.17394291424	0
23.862588150518	-0.245417872715	0
16.84024277193	-0.203626765466	0
16.704049384397	-0.435508179396	0
17.112673188265	-0.38804641709	0
24.75	0	0
24.832880292394	-0.290571430318	0
25	0	0
16.40158555625	-0.755912194683	0
16.850299990829	-0.757941865332	0
17.75	0	0
23.567455674596	-0.325197491724	0
16.25	0	0
16	0	0
22.645812614293	-0.197864648876	0
22.75	0	0
22.5	0	0
16.75	0	0
17	0	0
24	0	0
26.914424714815	-0.337869958787	0
26.621963281699	-0.624626679172	0
26.977877660759	-0.778408201088	0
26.622424322919	-0.264588309935	0
19.34462271879	-0.199329831305	0
19.25	0	0
19.118057075065	-0.225686869553	0
19.5	0	0
26.75	0	0
27	0	0
27.5	0	0
27.604422363523	-0.298869962794	0
27.75	0	0
17.650384190064	-0.227839036584	0
18.343198956448	-0.236734208617	0
18.5	0	0
24.25	0	0
20.143897114391	-0.233773711865	0
25.5	0	0
25.25	0	0
25.344389320279	-0.31693710653	0
21.059546193318	-0.24845941382	0
20	0	0
25.842927934822	-0.248287716678	0
25.75	0	0
25.613904645132	-0.216025146631	0
21	0	0
11.763551406169	-1.481607093928	0
30.981104050195	-0.5526690913	0
30.873880294509	-0.217692518774	0
30.706626759758	-0.34945139905	0
20.75	0	0
20.85240828135	-0.178025243856	0
23.75	0	0
20.66289882074	-0.189089155251	0
30.204950808504	-0.791758966623	0
30.715535843381	-1.149995259266	0
30.543724897762	-0.572259098027	0
30	0	0
30.180216671806	-0.343473673313	0
30.25	0	0
23.229584388362	-0.458653998547	0
29.5	0	0
29.623391954444	-0.322069028408	0
29.75	0	0
21.618913855927	-0.233585823579	0
21.75	0	0
29.348490380579	-0.521100538161	0
29.36294710412	-0.230601226356	0
22	0	0
22.25	0	0
28.25	0	0
28	0	0
28.129259193923	-0.314252106503	0
28.44374413871	-0.484576386004	0
28.100199615755	-0.812038297775	0
28.649230646972	-0.871769248311	0
28.618403654115	-0.227691192115	0
28.5	0	0
28.387848605749	-0.205892081491	0
29.054768525933	-0.708603081552	0
29.344906532636	-0.846887322836	0
26.327430876245	-0.35930637997	0
10.349120516034	-1.04150119828	0
10.894920134778	-1.514321070539	0
24.59640839418	-0.191760546865	0
12.75	0	0
24.5	0	0
13.102881121377	-0.411296235356	0
25.099388239946	-0.214879887129	0
25.97986022697	-0.52841375324	0
24.398993403151	-0.196312410538	0
17.860840746535	-0.577367743328	0
17.566481510048	-0.529340016102	0
26.5	0	0
16.637148248735	-0.188015807345	0
18.183918302467	-0.396443618316	0
27.159348252167	-0.205297590358	0
27.357530053515	-0.198815038154	0
27.25	0	0
15.060354649709	-1.112587998155	0
15.51532665618	-1.043792149387	0
15.178150912169	-0.713100616689	0
10.051363365948	-0.719159376333	0
14.661248691948	-0.27865166374	0
14.75	0	0
27.868836823455	-0.217301839861	0
31	0	0
30.75	0	0
-0.020273477909	-1.415389842481	0
1.054972770973	-1.487485199502	0
0.512583677021	-1.0438154777	0
0.75	0	0
2.361419414365	-0.794513604096	0
29.890297721653	-0.2433406165	0
30.473599299501	-0.238575611274	0
30.5	0	0
30.660802173874	-0.161931182737	0
28.783812899585	-0.467926883932	0
4.937022539393	-0.72440615077	0
6.696914540879	-0.380672503721	0
7.434272221796	-0.695675918868	0
15.339606453815	-0.166204802571	0
15.281953315711	-0.388999642276	0
11.893544445085	-0.335972898148	0
12	0	0
9.753796445798	-0.478866225926	0
7.720012958977	-0.638314519759	0
21.871398197179	-0.313006985103	0
21.615176662754	-0.521922347305	0
21.856785525528	-0.665128848631	0
20.792152536902	-0.448319093295	0
21.109577821412	-0.527879642114	0
21.360297691811	-0.734200004244	0
15.547854961707	-0.580173571081	0
24.496861814148	-0.467031445896	0
25.067351422649	-0.463427753535	0
24.81263825963	-0.684738154192	0
22.865620821195	-0.218348593093	0
23.443705587002	-0.773171720633	0
27.277617447467	-0.489224417775	0
27.863714790534	-0.471681393437	0
26.239117668995	-0.863279739365	0
29.896797054636	-0.547765129844	0
29.612773839625	-0.699757135752	0
29.867172666547	-0.87444432816	0
29.610354212963	-1.521444655905	0
29.59548165142	-1.071765512911	0
29.115129171034	-1.220660174798	0
31.345359428525	-0.458952144926	0
31.144859415042	-0.241304201582	0
15.919565295974	-0.746550096707	0
16.063006820294	-1.289595303187	0
16.5	0	0
14.900855313538	-0.178071167744	0
14.161016743654	-0.72559708689	0
19.011498044983	-0.834202892304	0
16.760433281999	-1.263698818643	0
17.280361389946	-0.931704507314	0
-0.627742252535	-0.296285438777	0
-1	0	0
-1	-0.5	0
0.625738545692	-0.228405936136	0
0.5	0	0
3.313957665883	-0.865581185485	0
3.619156095452	-0.800599314657	0
[...]
CELL_DATA 986
SCALARS 160.00_0.22 double 1
LOOKUP_TABLE default
8.0432324964408 8.5598317179671 8.0964872079588 6.4362916810511 5.7597824717522 8.5179818281333 7.5431989947603 5.6712315033694 9.5200198401141 8.2245615343583 7.5548246693134 7.6748310132985 7.6767252230113 10.091239510197 9.5019748086299 8.2158273394861 4.3568872393936 7.7278196345867 9.230391323767 9.6197879020491 9.4160594642852 9.6184608910551 8.718367214294 8.8715573314092 8.4524614928047 8.4903849325718 8.8977972738778 6.1422725911379 8.250963366022 8.3948723092797 7.0214869207874 7.8670661050473 8.4669728239472 8.7773747845545 6.5396226330332 8.6376949717866 8.5614830566846 7.7342396702563 5.420158029224 6.3651830406513 9.7684370033354 6.0753464042746 8.1637905544959 4.6035906700782 7.4202701416701 7.3503442955457 6.1203346767623 6.7234024468604 7.3232344240132 8.6560281886985 7.3781379518478 6.9748778068702 5.5864243256214 7.8956669273262 6.4164511766839 8.1487080782643 4.4645518735496 9.5777819124166 8.7484672220905 7.0872642085893 8.3996868986703 7.5437424322892 10.473686457712 9.763207591988 10.467947523521 9.5178686529789 6.6978948744789 6.1199873654112 10.912741548946 6.9889954973105 11.624792319248 9.9296340857648 8.2456069408172 9.4556563732956 9.2585138930119 6.5512343629409 10.327628680517 8.1633124417738 9.6332154807173 9.77531385094 7.6966966988876 5.504776793757 8.5007397700854 7.2691149854629 9.6548093661926 9.6445106634598 7.070572740375 9.2158935389468 9.0131059796995 10.807733969416 7.9991290547851 9.9779256706054 7.2469026765651 8.3009998806792 8.2530868497577 10.122317942173 9.6405871368529 9.3607963137385 9.7721318606895 8.3665440340319 8.840629248531 8.8417286138596 8.0667350268168 9.0631806745589 6.4235591705376 5.7990348016363 8.8737416496959 7.8822382795303 7.7131922586732 8.59452923941 7.1613007834561 9.1628957823278 8.4920301200573 7.6339208128047 8.5019889816092 10.251274355525 8.5468586596767 8.7751528695032 8.2614165732574 8.973785889487 6.9253197887446 9.5721774773368 7.91244784486 6.5362550957272 7.74548049395 8.3468995327159 6.9006995090224 6.5849482195191 9.2395965200919 10.198247374975 8.6492366360572 8.8817754459935 9.30996797474 9.0894447620009 6.0289095574924 8.2963191306427 6.9897912578641 9.5136589716036 9.3006195248747 7.2988053836878 8.1629929608934 7.286296472235 9.3765011081337 8.6895697631474 12.876815662724 10.710900964999 7.7301774073353 5.7026745026419 7.4574366220251 6.5538183660376 9.7621206019995 10.423318759349 6.9628106978912 9.4858465277423 8.5109208753739 11.344413397997 9.2408547419165 7.0023460356717 6.9275388847293 7.1128498143069 10.23051748974 8.2452727412438 7.4737640905373 10.700784074037 8.8217070208219 7.8500042589158 5.2708424169288 7.2081979804267 9.625675434344 9.3307532449148 10.154108751664 9.0211583322906 5.438780819106 6.8812312151857 8.4901625488713 8.6485697938801 9.190553173829 8.2276731294186 7.4591714424901 8.0213311690806 9.2963307250171 8.3408291421209 8.7306773950612 6.5086147985648 6.5316309848145 9.7073525793631 8.7945447319 9.33224821589 7.5731785788507 6.2621589370024 6.7802086987399 5.5803503304192 8.5755807970106 5.6070452243688 8.3535817145602 8.8032341149316 5.307201115386 10.168387204427 8.1246789527663 8.1102567023252 8.7253160082799 7.9792786650442 7.8917895003923 7.5895231703352 8.811235335716 7.1538581005752 7.9811720333477 8.0818861891126 7.710702737926 8.6146317401399 7.7651874071671 9.4094671390917 7.6108153709638 7.2220067414752 7.061439412117 7.1356863388506 4.8067104969724 7.4596077492373 5.5494227175685 7.6038006241918 9.2586955596996 8.0277427120293 8.7626202935635 10.615092647165 8.7360597495625 9.5223030513347 8.4643521538918 9.4570641720698 7.8207097815957 9.2682913409129 8.5632892196767 4.8492961942172 7.769820462897 7.9949587519955 7.1933888490123 8.7372315727882 8.2886142275031 6.2388944433485 7.8604948464882 8.022787447399 6.8943182348615 6.5036524790456 9.6756066303377 7.4398466155098 7.8524974502938 8.7496910103968 6.3191071964959 8.052006541199 7.428782075136 7.2186709330964 6.3482160041269 7.1697012431765 5.876309191865 8.3141539435141 10.695235222536 6.2807522729578 8.7115674099272 8.8449496365815 9.2440641769759 6.6738165430194 7.4957323386086 7.3612350603711 8.6884530384843 8.0492238632354 6.5891820744317 10.895852203964 7.2900680981527 8.7351156767189 7.0825488796725 6.6824821702183 7.6328345765284 9.8906087398692 7.6299729881627 7.586538764222 9.5139275767426 10.113158570718 7.0085396193675 7.8077425297438 8.7050178352772 7.9560497524996 7.4539541279847 8.7109949627222 9.258118354522 9.0924466485176 6.520195720803 9.1481532872424 8.6912644947906 9.5353295025485 9.2217428823514 8.5650941408019 8.1733865357646 7.5698442887998 7.035546861784 9.0186557049219 7.965440676744 10.614865461243 7.4963224177353 9.3800595772398 10.376942028352 8.2871144941015 6.2381581247926 8.7239331215783 10.123362914328 9.230014983349 5.8344323555916 7.2738996601385 7.7141337463186 9.8632871091904 7.47770902038 8.4980554922831 8.0525246614016 8.1626149101725 7.1699099341619 7.3032997559316 8.0391696787551 7.1139293896441 8.5890366961241 6.8273918433563 6.8248596960983 8.5134845244196 7.8810605755344 8.8958937824325 7.1925469272496 6.80606646457 7.5343212569206 8.0800235577519 9.2672673302838 6.4510115974473 5.723711473167 4.5612317579111 7.0054540774235 6.4271488575836 7.540666262493 7.9243330542854 7.0096889003498 8.1369494872108 7.4032340810488 8.6368375919639 7.3587096213335 8.6323554353135 4.8484383916917 5.2023513856513 10.577642022404 8.5432221476464 9.2989982636895 8.6709921482449 9.2859401554279 10.48486966206 7.9238280552794 6.5123131722408 8.2079126140779 6.0846564253661 7.5391818999367 5.430298652084 6.4370637525309 5.8860862210331 5.7079114780685 6.9505131962165 6.4271791251747 7.1713936355265 6.5784528735259 4.875494501405 6.9888565291256 7.4651649921672 8.3498429358554 6.1735568458335 5.5776053240953 4.9256577650288 7.143297069307 9.0422123549615 9.2559880286817 6.8614155024964 6.0284428184299 5.3898694052675 6.5144636586266 7.4973877147643 6.3193044365275 10.041593980794 9.8883851627671 5.7981615620409 5.0045935148245 6.6739110301872 8.245478841027 8.046961223338 9.8306992604916 9.6802692839753 7.4583777039416 8.7726476879652 6.6205167040826 9.3645907779042 7.9968819887399 7.5317497922894 5.5543971583496 8.5802574421211 7.3940236983383 8.0193286727482 6.3870296628803 8.7489284312583 7.8198941603451 8.1781670944326 9.2157001629267 9.7954797767828 8.629901189253 6.8885841083417 5.4941132086572 9.7940422529067 5.5897434569836 9.8473439712669 9.2184763879044 7.0947651275207 10.184046238304 8.0307096537764 7.6149669783935 6.7403304551184 7.9707847674218 6.9735347307652 6.0444456376904 6.3633236058816 5.1599852414856 6.4148311856591 5.8093337879133 8.6160545183517 8.267403703338 6.2309079444859 6.7667663054053 7.0006844916121 5.7405379550624 6.0679954343639 7.0965698354746 6.4989090349996 7.1100468064928 8.9916383115957 8.3610149569922 7.4763721259149 6.6946411027481 7.7274157697512 4.9245546084217 6.7759797053324 4.8919925803212 6.6864174628784 5.1117804007416 6.5709304424281 8.4902034442423 8.2432640879052 5.1587550441791 7.22416827452 4.2690654464661 8.7491921791165 6.585836597727 7.1798680537277 9.8397836318216 9.1805728296341 8.6026343904626 6.0655436822922 5.3686587753894 4.0365401061673 6.7588498890315 9.1014844938691 7.3937080517098 7.3839458705351 6.8697210401192 7.0965359684069 7.3634054956125 6.6882326411121 6.4682510066938 4.4385318088718 5.5541288656854 6.1387909601681 5.015511089681 4.5233574067494 5.1155799138929 7.9327914100197 6.187475262549 4.4645536100236 4.0605530981052 8.6000375591177 7.3254148628054 6.4895394275611 5.8846808395927 4.9688956480348 5.7299848365892 4.8854040601272 5.1849207455277 9.925149494032 8.0724079551924 6.5589229930102 7.1559950242708 8.5200108822308 6.9778483601895 7.4591864465057 4.2981329163449 8.0295206773918 8.5755565719687 9.0247698566222 6.4453960693907 5.5304977021587 4.5880417229909 3.7133547865874 5.9713733160484 7.4645059331935 6.1384999747899 6.1878074594125 4.9120573643238 5.7841299370956 7.4622094635589 9.1542156532815 5.0958122721547 7.8892590272689 9.0277806244373 3.9031507160515 7.5563446033653 11.436288347388 9.4149821534287 4.9055217679927 7.3367834658829 6.782862609562 5.7215726155292 5.3038181379097 4.6649781657223 8.6639542300213 8.5797800814393 4.6189842092701 7.4012429363921 6.5077221946722 5.3453235329699 5.0639661705712 4.3926474122556 8.375874017994 7.6602526007876 7.0800302395289 5.9818307324956 6.7634314472221 6.6477817569384 7.2720561134086 5.9041172829265 6.6816016347284 8.4822804309608 8.0580765650202 4.8491712236802 3.5493359715296 7.0437071837185 5.3348406861175 7.4925435994581 8.0225680201249 5.0234873322956 8.0122143375331 3.6887888252611 5.1676999965381 3.4643835517 4.2124665859891 8.0066342018934 4.9966913117237 7.0599592458545 5.0328891843417 7.0073393409153 6.7007493099054 5.5599819271869 6.8066135509539 4.8032743404257 5.3753324577682 5.5703199413561 5.165209168223 6.9690017419701 5.2967031463174 6.5656631249252 9.0500816960524 4.9314295201207 4.4360047175109 6.0429726942961 5.6424821349454 9.3514414210947 5.3403592367915 7.483916677932 6.3646387070169 8.4912789051542 7.6344608136166 4.9290687765877 3.7214450320355 7.2330401525804 6.3140650830682 5.9730692093701 6.0276540810654 9.0916976537418 7.0468216644239 4.8420479489409 7.2381909758501 8.5724641738955 7.3513144495685 7.3358858190504 6.5247613150467 7.2891645306046 6.2919235835803 3.8907118000098 6.5910957036298 3.9708981007648 7.32890332867 6.5011737640274 6.8062630740015 5.417881942177 6.1757993210491 6.5960297333491 6.3473389086406 6.2840255276259 5.125031174101 4.2227894435726 3.6153156523571 4.5215966478702 6.0619237102503 8.2058571672399 6.8383139273441 6.0425472973565 5.5888128412754 4.6672566834011 9.1864913664757 4.8330879737979 8.9791255927916 7.0677666530187 3.6416834635987 7.1301353272145 8.2662375950537 6.3571658654022 7.5610065996724 6.5936463569455 5.1626704011478 5.2922444840626 4.8721646758254 6.6996352052257 6.5766617289804 3.6690117255491 4.3991955963512 3.8536730299984 4.7974578873779 4.2537578635418 7.9346534213184 5.0218893683328 7.9965647219499 4.3601084475151 4.6058074371972 4.73152061501 6.59678904696 4.1160704333949 4.0111573248142 5.6637545242483 4.5914379823844 3.5661368286897 5.2903967794416 8.4621438642138 7.6387714570859 6.2392522674616 4.1175979800754 4.4611387126638 4.3162713359078 6.6735865793745 6.1129278054601 6.4260578155911 5.8222589857281 7.58424485317 6.9763763058193 4.8499233930554 7.171198780304 5.0532808789029 6.9810638852801 5.094527809147 6.6136764007013 7.281361181244 5.8429364805894 6.7253395300325 6.3949084348679 6.7070704782654 7.0897932576984 7.282918763198 6.1400345622237 6.8241971752142 3.9401732677593 5.2122451606404 6.900220382311 4.1117338369951 8.2815819232079 6.2607800445081 5.4889055435061 5.5783948138321 5.6433610142073 4.718090108323 4.5585987677353 4.4295411182605 4.5270057114311 4.5209220793063 8.2821752986542 8.3580387156297 8.7074387233735 9.5780722797111 4.3022709392561 3.5548394513692 4.703856019545 5.0495967468892 5.2559970383349 5.0111467825156 5.0016801208121 4.7268939142953 5.6785923227154 5.5305056385717 5.5116058556446 5.3470835632704 5.6730691605209 5.6367250014376 5.1895433408306 4.7142704939707 6.5824909730502 6.4609724364677 4.1755622773022 3.4096378579775 3.3238056374983 3.9979347017108 3.8333042876216 5.9670387620304 5.1420657849229 6.1345360340101 5.8159634586567 10.687689391272 9.9973244875966 3.7110313518842 4.1842737643912 7.004165453469 5.1913363265648 3.5686301753552 3.7338871571447 4.6417366156449 6.6795178854621 7.9113408343977 5.7056884861314 6.8900493168424 4.7189608073693 4.8529723275675 7.9976881264923 4.5956888128481 6.238479637914 8.9715314434384 4.3615302940849 3.9221449878733 6.5974920929459 6.8528667044289 4.6576849503738 4.112693459191 4.0202380096825 5.6591075228516 3.8335169265628 4.4433999866821 3.4729900209754 3.3569397387997 3.8298488886955 8.1990172998877 4.2951860553381 5.1707442853029 4.2111394788024 4.8766147111537 3.990234964969 4.8858035771093 7.1592778156646 3.4591442318845 5.6617863610332 3.308861449768 3.671181454616 4.7623209944991 3.90416291854 3.6817246273807 3.6915476855287 4.0776452705671 3.8332899580005 4.2175109364443 3.6295878177779 6.275677299887 4.6821718654361 3.5849282964233 3.8413827174232 4.3982196173495 4.2271587100438 6.0322234384621 6.0704557409688 6.717504525964 6.3235227650368 5.6069739065931 6.0269483062638 5.1498842341517 5.5654437090418 6.3635945263294 6.0314908727595 4.9022123884488 5.3080850723099 5.2409659814145 6.4559571358715 5.8246996979735 3.3645663299562 4.2238814255156 4.9160134853244 4.0733874637626 3.9080768091741 3.7149167637236 3.859014439276 3.5618752615699 4.1621513623159 3.6016668897924 4.1395674513237 4.3682569373444 9.3711304379437 4.0017443820176 4.7358333578804 4.5783483189403 8.2875961544255 6.5933861138019 3.5707647709246 3.5360403799604 3.3396635986815 4.0981627469414 4.5848832415269 11.191464648407 3.5840963004999 3.8183000766659 4.1443961320893 3.3140949381961 4.2342492457991 4.8376317635197 4.444261152122 4.2941736113967 3.7752708024384 4.4034497257002 3.962070363691 3.5645072809526 4.243963866876 3.3572759125315 3.5576115014771 4.1475782520093 4.0446508388395 3.2925872143338 3.5104067833774 3.2713928488328 3.3960103297231 3.331633891397 3.2882089011614 3.4278699860559 3.9783756199761 3.9240547178671 4.8647680814581 5.0901032761611 3.5797809806174 3.3905157540008 3.2927375407608 4.1043766299867 3.395351218068 3.3727832979076 3.3852732310743 3.3804685520714 3.4125414555048 3.6911102033755 3.4463060920774 4.0904758944675 3.2089828331062 3.4137336732821 3.8344486742133 3.7212489569875 3.2896960243463 3.2873016166672 3.3784262774916 3.4259699947386 3.3025026607628 3.312474458391 3.3234927004046 3.3939507724211 3.4057692410178 3.3211322439572 3.6952794042261 3.3867948852975 3.4729647057595 3.2926138344752 4.1453281885014 3.2721734872599 3.4179363830343 3.2575733489914 3.274770712174 3.3349077410642 3.306057727383 3.4647611655886 3.4694290846653 3.3810375562035 3.8896811980424 3.3188749744144 3.6415145502648 3.2587559402832 3.2887509694648 3.4392932708517 4.154652253709 3.501146990652 3.4096280922549 3.2495015808984 4.1382337066157 3.5471767477804 4.2430747654208 3.6320544955566 3.3709134721041 3.4436593274283 3.3918444666693 3.3016077492836 3.7534959479697 3.6514550380198 3.5855878653589 3.6546043988873 3.7486066075984 3.6245561695852 3.8486766821414 3.2877886458733 3.5547373197546 4.4663164787893 4.049394687183 3.8401853048808 3.4646233699031 4.0192860409392 3.2865941946188 3.7479448942176 3.5169724849656 4.0884681321943 3.5590348939928 3.7686228861626 4.2123666341872 3.6143918350815 4.147243530131 3.7846201293891 3.7852292998228 3.9590614051181 4.0502416035294 4.1477017397375 3.788017308554 4.1128771309461 3.5245437725217 3.4936618965703 3.4438343509875 3.4889062823377 3.6986093705547 4.0584219882135 4.1804971566439 4.0641701946349 3.7108639126665 4.0170755171304 4.0536842226799 4.2298166079609 4.5542412092949 4.2939760384644 3.6908129141596 3.6056115936117 3.5853276186798 3.8254045876481 3.9148637431417 3.4178615609265 3.66606488267 3.9171391006399 3.5910120088768 3.7857099385336 3.5868006672519 3.9707976217823 3.9930960388623 4.1338486266356 3.9717277479594 4.3643525868897 4.3146334011825 4.1939526311224 4.145202837225 4.1106614881932 4.2871488494791 4.2907975063172 4.3093287082822 4.2713690629917 3.9356222098788 3.630264077081 4.4287128580577 4.0517947562007 3.8362740773071 4.0384959346318 4.1822489032799 4.3062407784279 3.9625297875772 4.1335118391086 4.4161391086973 4.3832987353632 4.4147426889405 4.4559949283762 4.1948347846504 4.4774965299602 4.4352545257866 
SCALARS 20.00_0.04 double 1
LOOKUP_TABLE default