# vtk DataFile Version 3.0
d-2__ created by libgimli-v1.0.12
ASCII
DATASET UNSTRUCTURED_GRID
POINTS 1303 double
5.625	0	0
5.511811217919	-0.146388704457	0
5.676386535709	-0.13519637448	0
0.25	0	0
0.175228502521	-0.179050409113	0
0.326009290428	-0.144330725415	0
0.375	0	0
0.990207725992	-0.114957291708	0
0.841075314552	-0.137634199948	0
0.926498288371	-0.349340723189	0
-0.001071200562	-0.386156929004	0
-0.003317641763	-0.130454088023	0
-0.192720422374	-0.216308252768	0
1.25	0	0
1.175215748534	-0.200562384647	0
1.341115762259	-0.128605193971	0
1.375	0	0
2.25	0	0
2.168494514827	-0.19848886597	0
2.338304607341	-0.128945294536	0
2.375	0	0
1.911268305082	-0.334701951691	0
1.986191885908	-0.110806668109	0
1.838390258011	-0.128853462534	0
1.75	0	0
1.670105949089	-0.197137117999	0
2.986685504441	-0.10889534818	0
2.838723720416	-0.127406828384	0
2.912854264006	-0.329775839393	0
0.75	0	0
0.664572693147	-0.222613872306	0
3.25	0	0
3.168798596028	-0.193682232199	0
3.337828500197	-0.125181208794	0
2.875	0	0
2.75	0	0
4.25	0	0
4.161099470995	-0.193412132741	0
4.332718836325	-0.127723897736	0
3.83511440706	-0.12403687807	0
3.875	0	0
3.75	0	0
3.901908238995	-0.321557035295	0
3.983050435256	-0.106770030737	0
3.665527023987	-0.190866765849	0
5.25	0	0
5.164693411436	-0.21656556845	0
5.338419985376	-0.147288917438	0
4.834321952324	-0.135810575609	0
4.875	0	0
4.75	0	0
6.25	0	0
6.178399669611	-0.137425451145	0
6.356205370496	-0.193853696818	0
5.817814980918	-0.161175429964	0
5.875	0	0
5.75	0	0
6.611939839541	-0.314381537706	0
6.522886280605	-0.104721203126	0
6.75	0	0
6.669178832877	-0.119404962711	0
6.836073690852	-0.177498311423	0
5.39059629209	-0.37339102075	0
4.660917359886	-0.204007052252	0
4.902096977384	-0.356327271651	0
14.897042426984	-0.319128540459	0
14.98121339776	-0.105010975498	0
14.832720105416	-0.123004000492	0
2.669265824618	-0.196872625129	0
7.656019919505	-0.144451020927	0
7.75	0	0
7.625	0	0
6.625	0	0
8.75	0	0
8.672937461928	-0.164309120831	0
8.834289374889	-0.109279841483	0
8.206809119751	-0.294811800109	0
8.187056112549	-0.110869448227	0
8.024316200302	-0.129362764133	0
7.157390904024	-0.111206354394	0
7.25	0	0
7.125	0	0
8.25	0	0
8.125	0	0
9.75	0	0
9.651145885459	-0.185384966231	0
9.827054067621	-0.122428024454	0
9.381816956327	-0.305807769915	0
9.476753337472	-0.101567493772	0
9.327490061855	-0.116748040282	0
10.75	0	0
10.655660803951	-0.196164841752	0
10.830485405183	-0.127989131147	0
10.386748323888	-0.329675548046	0
10.478464938155	-0.108955040137	0
10.328560245085	-0.126395562242	0
9.25	0	0
9.375	0	0
10.25	0	0
10.15270392044	-0.192469144253	0
8.328856990144	-0.128933011689	0
8.375	0	0
9.153857570119	-0.175508527296	0
11.75	0	0
11.660624577581	-0.201812344528	0
11.833823570609	-0.131890823957	0
11.395399221028	-0.337817920558	0
11.481219500696	-0.111845889235	0
11.331881500183	-0.129806070652	0
12.75	0	0
12.669299873111	-0.199190799603	0
12.839534650452	-0.128328673855	0
12.40897914742	-0.340185307353	0
12.485654611126	-0.112072117633	0
12.336727606385	-0.131188239877	0
11.875	0	0
12.25	0	0
12.164627546098	-0.202605127067	0
13.75	0	0
13.669268468008	-0.186168180444	0
13.837322273199	-0.120178339978	0
13.416957459915	-0.319650485848	0
13.487510959619	-0.105281058988	0
13.34010202956	-0.123833443479	0
14.75	0	0
14.66080663422	-0.189613659871	0
14.399926333663	-0.319306441484	0
14.4823067449	-0.105599641009	0
14.334114343934	-0.12250571155	0
14.875	0	0
15.25	0	0
15.158227025815	-0.185762723401	0
15.330441202311	-0.11956675178	0
13.875	0	0
14.25	0	0
14.163960939829	-0.186365139356	0
12.875	0	0
13.25	0	0
13.171786689458	-0.193064330135	0
10.875	0	0
11.25	0	0
11.158129238503	-0.198418008741	0
7.31587636932	-0.171642077952	0
15.3902841013	-0.308450173235	0
15.478958243586	-0.102394874489	0
-0.125	0	0
0.125	0	0
0	0	0
-1	0	0
-0.706889652808	-0.331752981492	0
-0.5	0	0
1.125	0	0
1	0	0
1.625	0	0
2.125	0	0
2	0	0
1.5	0	0
1.488007132967	-0.109900770852	0
0.5	0	0
0.474245721096	-0.130043839003	0
0.625	0	0
3.125	0	0
3	0	0
3.625	0	0
4.125	0	0
4	0	0
3.5	0	0
3.485533411273	-0.107014956798	0
5.67736414417	-0.368119689468	0
5.125	0	0
5	0	0
4.98353533542	-0.118243061674	0
6.125	0	0
6	0	0
6.009467825362	-0.139471566496	0
6.5	0	0
4.625	0	0
5.5	0	0
4.5	0	0
4.481603306259	-0.111052305129	0
2.5	0	0
2.486482293556	-0.110456056597	0
2.625	0	0
7.828740664136	-0.157959666613	0
7.5	0	0
7.497789303332	-0.098817221798	0
8.625	0	0
8.5	0	0
8.493725508365	-0.094448160765	0
8	0	0
10.625	0	0
9.625	0	0
9.5	0	0
9.125	0	0
10.5	0	0
10	0	0
9.976983002093	-0.106037154081	0
10.125	0	0
9	0	0
8.980258705317	-0.095443922293	0
12.625	0	0
11.625	0	0
11.5	0	0
13.625	0	0
12.5	0	0
12	0	0
11.983083448534	-0.113269018621	0
12.125	0	0
15.125	0	0
13.5	0	0
13.125	0	0
14.625	0	0
14.5	0	0
15	0	0
11.125	0	0
14	0	0
13.984735949845	-0.103165953766	0
14.125	0	0
13	0	0
12.987740386932	-0.109238757727	0
11	0	0
10.980033547654	-0.110118532971	0
7	0	0
7.012790729926	-0.096165366155	0
15.625	0	0
15.653391866104	-0.184257106926	0
15.75	0	0
16.25	0	0
16.151956269841	-0.190746813766	0
16.328162175541	-0.125534698515	0
15.827345422636	-0.12109528269	0
15.881623705918	-0.315197408181	0
15.9768075603	-0.104841845177	0
17.25	0	0
17.155473725888	-0.187015736188	0
17.328334720487	-0.12053442359	0
17.375	0	0
16.97978281674	-0.105790715925	0
16.830585534618	-0.124270763258	0
16.892220832712	-0.321708894118	0
16.75	0	0
16.655725821363	-0.19281499559	0
18.25	0	0
18.144056513649	-0.199584109463	0
18.322695877645	-0.133173012767	0
18.375	0	0
19.25	0	0
19.156955168382	-0.212194778097	0
19.332395147696	-0.137501625504	0
19.375	0	0
18.978107771567	-0.118463258117	0
18.827251646435	-0.137822523984	0
18.884674261801	-0.359498065923	0
18.75	0	0
18.648603260315	-0.210400354993	0
17.973004229039	-0.108213471414	0
17.823362138939	-0.124125311933	0
17.87020700187	-0.324156104502	0
17.75	0	0
17.64837652944	-0.187413016584	0
20.25	0	0
20.167288289523	-0.206556633625	0
20.33799343326	-0.133667464393	0
20.375	0	0
21.25	0	0
21.172020853715	-0.201327641466	0
21.340729826518	-0.130206344264	0
20.875	0	0
20.75	0	0
20.839555732676	-0.132066213667	0
20.987710400762	-0.112937783384	0
20.915843633601	-0.342386775443	0
20.669904108595	-0.203936882105	0
22.25	0	0
22.168893714495	-0.194483818359	0
22.337089427477	-0.126591453251	0
21.875	0	0
21.75	0	0
21.840184239699	-0.127666317168	0
23.25	0	0
23.162361450448	-0.215073727418	0
23.335945395372	-0.148199257458	0
22.875	0	0
22.75	0	0
22.83504078106	-0.133126573368	0
27.412614995451	-0.337768305098	0
27.406417478875	-0.760610856776	0
27.663031754041	-0.476449210851	0
23.674319496044	-0.139602731619	0
23.75	0	0
23.625	0	0
22.902876337082	-0.348446434986	0
22.664415839639	-0.19979598046	0
21.987454968006	-0.109075483352	0
21.916658702332	-0.330379709848	0
21.67241042914	-0.19774510361	0
19.984830323221	-0.115851903278	0
19.835879034474	-0.135573032779	0
19.906686139011	-0.351521653308	0
19.75	0	0
19.663378765328	-0.209646647928	0
24.75	0	0
24.672305039303	-0.121865624882	0
24.84054616259	-0.178479133746	0
24.25	0	0
24.125	0	0
24.179559510218	-0.145425217914	0
25.656694723316	-0.141492417978	0
25.75	0	0
25.625	0	0
25.25	0	0
25.125	0	0
25.159224348757	-0.109007087058	0
22.647257188685	-0.476376729768	0
22.872248033711	-0.780455516934	0
25.317652966423	-0.167196322239	0
31.908525182248	-0.237434634112	0
32.248547795208	-0.367887731521	0
32.025	0	0
26.398062594932	-0.327144710524	0
26.335089901602	-0.124890632532	0
26.169730315141	-0.188549564961	0
26.75	0	0
26.662500836065	-0.197477656933	0
26.835401004001	-0.129534360312	0
26.375	0	0
26.25	0	0
27.486869476066	-0.111474770432	0
27.338367230812	-0.130187170762	0
23.816158307302	-0.168335740772	0
23.875	0	0
24.625	0	0
27.75	0	0
27.67023663024	-0.198727549038	0
27.839431305592	-0.128541986375	0
27.375	0	0
27.25	0	0
28.75	0	0
28.666013303123	-0.192953151514	0
28.835335299513	-0.125393524551	0
28.875	0	0
28.41074998604	-0.32692743598	0
28.485854239984	-0.108071323096	0
28.338261561589	-0.126341817439	0
28.25	0	0
28.169650699531	-0.195402875109	0
29.75	0	0
29.656991685033	-0.201213204108	0
29.830700495316	-0.13323291855	0
29.875	0	0
30.75	0	0
30.665605116896	-0.213760177502	0
30.837855425721	-0.139272404211	0
30.875	0	0
30.987248292653	-0.119871959545	0
30.911614165903	-0.362389547989	0
31.25	0	0
31.174363802618	-0.217041176186	0
31.346460135447	-0.143418487957	0
30.400599561582	-0.360265197586	0
30.483280501431	-0.118794220148	0
30.3336351656	-0.137924489201	0
30.25	0	0
30.159375273254	-0.21004086356	0
29.392934647931	-0.331414044449	0
29.48031118177	-0.110263057575	0
29.331777210358	-0.127344913482	0
29.25	0	0
29.160548153072	-0.194064979946	0
27.167334579456	-0.200440763045	0
24.359650796728	-0.20304719459	0
-0.25	0	0
-0.404335947278	-0.221464959739	0
16.125	0	0
16	0	0
17.125	0	0
17	0	0
16.5	0	0
16.478267427857	-0.108008273171	0
16.625	0	0
18.125	0	0
18	0	0
19.125	0	0
19	0	0
18.5	0	0
18.473681471998	-0.115768873419	0
18.625	0	0
17.5	0	0
17.47687846862	-0.103462148239	0
17.625	0	0
20.125	0	0
20	0	0
21.125	0	0
21	0	0
20.5	0	0
20.486446843971	-0.114298370976	0
20.625	0	0
22.125	0	0
22	0	0
23.125	0	0
23	0	0
22.983281399654	-0.116385827149	0
23.5	0	0
23.509214189908	-0.149359691049	0
22.625	0	0
22.5	0	0
22.48467632496	-0.1093719097	0
21.5	0	0
21.488472844532	-0.111208801785	0
21.625	0	0
19.5	0	0
19.482219828947	-0.117572233456	0
19.625	0	0
24.5	0	0
24.525433875838	-0.108080714825	0
25.824234283709	-0.149177038136	0
25.5	0	0
25.498573523516	-0.096586408813	0
25	0	0
25.014769107289	-0.095147895568	0
21.919931345447	-0.741308582321	0
22.160361550711	-0.463896476278	0
26.625	0	0
26.5	0	0
26.482631880244	-0.108512805864	0
27.625	0	0
27.5	0	0
27	0	0
26.984612185119	-0.111680714924	0
27.125	0	0
26.125	0	0
26	0	0
25.990349817319	-0.10847866492	0
28.125	0	0
28.625	0	0
28.5	0	0
30.625	0	0
29.625	0	0
29.5	0	0
29	0	0
28.983089608831	-0.107750428826	0
29.125	0	0
30.125	0	0
30.5	0	0
31.63125	0	0
31.5	0	0
31.494696987447	-0.123712578064	0
23.671261205816	-0.380102168636	0
31	0	0
31.125	0	0
30	0	0
29.980228243528	-0.115525062547	0
28	0	0
[...]
CELL_DATA 2263
SCALARS 1600.00_0.75 double 1
LOOKUP_TABLE default
9.5122394487502 7.7870385703932 7.8535304390368 8.7281150768508 7.7169129759702 9.2538504175712 9.3215899233759 9.6111752653326 9.6206206217043 9.6466155890094 9.7594151464307 9.0200235194323 8.5564582544985 8.4914652782586 9.2679620241021 9.1136082796431 8.4804252924938 8.5355970624054 8.4378537797127 9.1338967897933 9.172421924443 9.0539435991416 9.5066576157533 8.8864134013566 8.7537361486301 9.1656509795479 9.5154305169318 8.9593717235697 9.106273665269 10.713447618238 9.2973365566388 10.04205470991 8.7043500316249 10.017104095868 9.7931331305075 9.6704633754819 9.7229365922362 10.140842227504 9.5264718300158 10.847353815856 10.700181002207 9.3495333516243 10.80489432497 9.7634338190082 9.3891991977416 10.311040099979 10.295250090374 10.122705529358 9.7235395530295 10.264300690015 9.7873756507705 10.223346019174 10.425004320179 11.049108732345 10.73302437055 11.033513794612 10.131215068792 10.210067492522 10.737222720029 10.244916645296 10.282059331193 10.915100102809 10.246689762893 9.7272673717574 10.175278401079 7.7913451341892 7.7137742933653 6.9487877321097 9.2271258069518 9.0527974641223 9.7663397086266 9.8246686859385 9.6508757170796 9.6841025708588 8.3671269671316 7.6835949936151 8.5900553447116 8.9285126721052 8.4421279627385 8.8782717579564 8.5061604897752 9.0757232609901 9.3590336716438 9.1929939807233 9.492192113103 9.3130652485384 8.8168033283993 9.0997286168358 9.5273923850348 9.3586740431206 9.1828053351617 9.1104159706935 9.6083931819493 8.5127386712287 10.032881110035 10.05671411948 9.733309642328 10.097967019817 9.9001872462955 10.078788545432 10.852114853675 9.9004254575986 9.4775697504345 10.923075787539 10.56348687598 10.768997482181 9.7845332652031 10.138466165119 10.060577907789 10.560138869515 10.261586505253 9.9593795890906 10.102291187229 9.8752979929645 10.23621659841 10.471233021826 10.209597465971 11.113970219962 10.615922974961 10.321395982169 10.693917648868 10.782603097132 10.259790323193 11.162223699066 10.674878391501 10.463813047525 9.4712645154181 9.4202578611467 10.763555468499 10.756887767555 10.627192038613 9.6220156670316 9.5921597891347 10.607968195773 10.960399087496 9.1690994955429 9.1455435824415 9.9615574266411 10.062303425993 9.5397532109409 9.522716113395 9.6033123193166 9.7552661282818 10.816543391906 10.885540114876 9.3961984323655 10.29979941149 10.043827901323 10.304789500849 9.741650131574 9.9551837353356 9.6640704059362 9.0961726857101 7.8145552430861 9.177088073908 9.0589315921722 9.0776568096086 9.7757196705157 9.931012387504 10.2099838464 10.070505136392 9.1471421386401 8.5679554097389 9.4621729515236 9.4043652718757 8.0812908128719 9.3675479323872 6.1610616260636 8.9412163758585 8.5228561767703 9.2256493133934 8.7096155499056 9.1483842819481 9.1439260167973 9.2278967305188 9.0082431072651 8.6948172194268 9.3028307872199 9.3249133486317 9.3341431670092 9.3917421595153 9.089334669075 9.0972802251154 7.764245639156 7.6345085551377 7.5470382478162 7.042941803452 8.2308826508279 8.2512294976842 9.2475678896521 9.4195053289363 8.6578889072722 8.5665924264428 7.4837322095166 10.83727352993 10.778157787137 10.26562058355 10.979073103438 10.760951066273 11.002906935094 9.541202786172 9.9268339798783 9.8532563357891 9.437075440832 9.260517515488 9.8749426251547 9.7077054030113 9.8387261063021 10.714912501374 9.4639278184199 9.8994369635576 10.720077509246 10.856873800836 9.830486235307 9.977094322899 9.1421317998667 9.6343549175304 9.4211472046284 9.1146822510761 9.4404752453292 9.7408262311007 9.9127820203362 10.419623621801 10.164053354988 9.5159988997486 10.056421733919 9.0930429321885 9.346562964534 9.5749685723586 9.4613484772137 8.383059501982 8.5762306438716 8.8692891358067 9.0081313268772 8.9638864881954 8.7012580398218 9.3303936219243 9.3990428517633 9.3815932768353 9.4606722913564 7.9475836601565 9.2997030859741 9.500821616568 9.150549774045 8.3371114204485 8.2230941622745 8.6670112748543 6.6618487903098 9.0576368940662 7.5013942746538 9.4781031685016 8.7065137333392 7.2322050700406 9.3084989156349 9.3349042108432 8.8551303796265 9.9959753321652 6.7650735798669 10.552905080311 7.6950236441428 9.0405147605806 8.1598309606375 9.1390000391564 9.5137996492723 9.7257767676432 9.6397246440794 9.6870863074727 9.8707459917983 8.4695426380353 8.8457236691507 8.7384630805286 8.4965884780197 8.9593236219898 9.2750748598431 8.4665837879212 8.6997333857741 9.1286294737615 9.4447022295141 8.6082461813259 8.9741715236741 7.8482938378119 9.2410894560784 9.0989675749669 9.4534761128462 9.1025337323395 9.2666538032567 9.4926405450827 9.1224459605885 10.077259948478 10.111105805062 9.9173808217467 9.8975417442469 9.9771341543799 10.041339868708 10.383762300059 10.83695163014 10.908220443685 10.627845046747 11.01524880411 9.6388100398958 9.5701774694766 10.528663089678 10.177136652209 9.970359325276 10.374820365216 9.9612038794199 9.9024151921323 10.385842721379 10.439610975766 11.130376162473 10.846931649975 10.395643521335 10.298069485707 10.764823816868 10.917955169305 10.205074701432 10.532786603649 10.48450150652 10.39673090712 9.9240493907593 10.03547087889 7.3199214829239 10.650621700319 10.879597976501 10.760935201521 10.949181185977 9.9483590672497 9.7473603864959 10.940879677918 10.759635689545 9.3971059446852 9.2866726724785 9.8613562133995 10.223014050659 9.4748925026539 9.774267434567 9.881695768879 9.6713307933815 10.766727231732 10.882333261421 9.6669756820461 9.6573482240927 10.526172356198 10.176092121097 9.871648176358 9.671666633591 9.6860283669262 9.633653420933 9.012199740377 9.0892278490313 9.2546874611604 9.3789049046192 9.965542856948 9.9966399093253 10.088773131411 10.471058488542 9.5195150453087 9.3934144095163 9.4038844423348 9.3287784917905 9.0303261863735 9.484308399999 8.689877954806 8.6543894734389 9.3385359780605 9.0886341908352 8.9747708703536 9.224547168122 9.3759638154235 9.4336120076922 9.3193322301245 9.5257723242421 9.1930255126765 8.9721098828942 8.1219468020686 7.4915170555835 7.3835249906349 6.7250650967312 8.5167355214134 8.2061470435196 9.4741127377421 9.3991958772638 8.6813006214239 8.8607012002172 8.7507598469569 8.8933997865712 6.3465214232948 7.6669066745551 6.4579030430304 7.8550422838973 6.5602419549447 8.6351678585092 8.6045030377409 9.003120286714 9.8184741661799 8.4628458049332 8.8690057238188 9.3089531201763 8.2915272421746 8.0936343674573 8.3082818714594 9.2047632368862 8.307206995889 9.207552161769 8.7774904608367 8.432040671996 9.2252906956538 9.0972471070258 9.0415255332183 8.1136061138443 9.0171100538132 10.085765505933 9.081615231607 6.4721671068575 8.6419304539929 9.0407897995786 9.5417676692763 9.4617794288331 9.9122418020611 9.9937707785294 9.9906545797878 10.196864003295 9.3524797857475 9.4771461607199 9.4207479433196 10.029047453158 10.918871824253 9.7268792726139 9.7107408916954 10.140937352783 9.7770907914076 9.9088871740914 10.227803444691 9.3307927910587 9.7978837842096 10.076276984861 10.295686635382 10.044019419571 10.371177314508 10.236132625288 10.752783079321 10.109200353695 10.777926398646 10.827932730371 10.406252415187 10.387247866684 9.7186234810835 10.14795194511 10.606059252327 10.720540925827 8.817719490159 9.749150112636 9.9153624087016 10.823036395946 10.288479964761 10.618590666774 11.013329667583 9.0058258120897 10.526978655814 10.675674370722 9.7342900577368 9.0794647382403 9.5877631093179 9.6648930423676 9.429140952877 9.1932858257189 10.205551864133 9.7179854751963 10.140185713946 9.3875402404165 9.2059772055811 9.7555380601522 10.309111675129 10.578758935523 9.0451196750765 9.701501111541 9.1400057472813 8.8563630695311 9.21329787858 9.3302960046897 9.6564347981206 9.514614375236 9.7670710612733 9.5412034117599 9.5636591384206 9.9568761696474 9.3045931120544 9.3101397758546 8.7188488791658 8.5332341837521 8.6062303890024 8.1870215217219 8.7801354776453 9.0650067897494 9.2477634830397 9.3585959514518 8.3853648435807 8.840222357505 9.4593699339875 8.6798402939344 8.7495828631261 9.0271329687201 9.4349432393348 7.8255027596911 8.1945120894979 6.9214257896971 8.1476890134111 6.2498059450137 9.1034078709158 8.8932409874823 9.2588226934862 9.2876847985158 8.9445998405804 8.4515918433306 9.3023453509488 8.6907893311203 7.1340049027193 7.1443853922617 7.0952159816813 6.6348401512724 7.9329784293498 8.0051708992127 9.1460910745806 9.3799209007819 9.3992935754853 9.6105863198557 9.5372599176351 9.8213727609654 8.5632294241912 8.6966448992858 8.4019933521458 8.4699568342732 8.9088948888027 9.2223400405099 8.3914368183557 8.5553841538382 7.7538561490508 9.294783662051 9.2062399508508 9.0504519465755 7.3796171899188 8.8499135641347 8.9751620243632 9.4757670409304 8.4952733544001 9.2099391452814 9.0407021394141 9.1976377681582 9.5932431199712 10.094662629458 9.8607545822151 9.9667804908376 9.0298177254561 9.8631842011466 9.9773346419241 10.241993212985 10.6216102839 10.917293406435 10.523694190975 10.937396169671 9.4356834815206 9.4260713072156 10.041404938384 10.202703110754 9.964152832383 10.300673146745 9.6204712617671 9.8185900486137 10.270454529589 10.300321088353 10.716426161337 10.936989173679 10.07259006116 10.162508433471 10.603315884986 10.792313269303 10.265403441644 10.462593828769 10.205654713586 10.293178682954 9.2209766552681 9.8430322461616 10.508734975068 10.823200483628 10.533966988266 10.849767382217 9.6629202183393 9.6621425551284 10.601244592683 10.914677612324 9.1206495829404 9.193364121663 9.7703177952055 10.123545190792 9.3758176991524 9.6496355187453 9.6033450309907 9.7034691255388 10.45417124026 10.862152341289 9.4038724829007 9.4908038479601 10.022824320274 10.251415088657 9.4740513577738 9.7149606216258 8.7122052370916 9.6492273521026 7.6530175044483 9.1340498048629 8.7769107475131 9.203932546611 9.6774460626166 9.9480270947958 9.9824038830265 10.261753364402 7.5873545863667 9.2149933620772 9.0218400562033 9.2776908909613 8.4196569104333 9.3697216292008 8.7031777099928 8.5797571854752 8.2890373710087 9.1527144076389 8.8771149896613 9.1137012805631 9.1922008320635 9.3576847043942 9.2131305966188 9.4785585412301 8.9029679035205 9.0494522716665 7.6604189374312 7.5618043588625 6.8945544167162 6.8223370273808 8.2533782527245 8.2086742078857 9.20896283625 9.4036708837572 8.5771501883841 8.7532960657084 8.2287090067286 8.6037918614313 7.3334902195411 9.3748962858697 8.3280268110009 9.3292899150249 8.9582007097557 8.3834568459767 8.429739613598 8.9779957668988 7.998993456929 8.1439376604294 8.6744037009582 8.9515796852752 8.380959680528 8.3723525940702 8.2041269067273 8.0836938693093 9.742340961049 9.4777325683967 8.9863537882574 9.5492916665424 8.6482773411326 9.9342838961324 8.4411372448238 9.7570521634905 9.7788289760526 9.8479353363723 8.2978116421718 8.7639205212813 8.916817598204 9.9022571554938 10.037264517415 10.215743861317 8.6784172454825 9.6963263979692 9.3292382642691 10.51981563888 10.05371739782 9.8544226934984 9.4804112561115 9.7362816441556 8.5803473601802 7.9331631013058 8.8786648179485 10.112263286156 9.4173506558045 10.516086268386 8.665289015276 9.3030503418731 9.5833459977723 10.435962871917 9.4760150883488 9.8964393573222 9.823019237337 9.9727426330986 9.5769317624028 10.168938237025 8.9261837087351 9.7702383305162 9.3169768157522 9.9744546253958 9.1003699962878 9.3946074880222 9.3023378009842 9.6943664982632 9.3023396812099 9.7537732346915 9.5560327973312 9.2355626692036 9.2592153752633 10.015960209766 8.3479794250131 9.906794341167 9.147505737605 10.357382911545 8.2830153072004 8.8463449339757 9.0389449807759 9.4018019127048 8.8280191655747 9.6371184903959 9.1126321713089 9.2883275884441 8.6831818592559 9.598153333722 9.166976506678 7.7584664558647 9.1188090851032 6.0662506479946 7.8567080674322 7.6641122430609 7.2263570447953 8.6032568531844 7.9104771101126 9.1345231474794 8.486858778047 9.3689371167317 7.1733350381191 8.9934308665255 9.2621704935407 8.5427846910222 8.9794158506571 8.6701099272628 9.2883937974466 9.0582106239767 9.0111883962857 8.4401321576815 8.2093351113298 9.2706708245679 8.8369485626538 8.664123753441 8.4334815383847 8.6690227683994 8.1173974564937 7.3986401356229 7.2589805589612 6.6145179908807 6.680655560454 6.1797446429819 7.7786619679734 8.318989969442 8.3383642582353 8.8543931635527 8.531286246938 9.1301746940936 7.7564149255804 8.2478164889323 6.782385748875 7.2576313834055 8.7890219820511 7.7530501632482 7.3202732048335 7.9463403606596 7.4553295444321 7.7824168514725 6.4346611500376 6.9263826553618 6.2650396609882 6.309402160363 6.0574721937308 9.0175845412206 7.265609084562 8.7167724200586 8.4052254626556 8.2478341185349 8.1312431418771 7.4248504941296 7.8591356446712 8.0845078735527 9.7734775403865 7.7280202546383 7.6879309363222 8.5994441050334 8.3862288200806 9.3216140614538 8.4233352239932 8.0693187529739 9.790192727434 6.0113732717569 9.0425750962914 7.6936200141745 8.5095576238319 8.0237133181674 7.9033962798688 7.8219691142418 8.221616598961 8.7471554818212 9.1490334422025 8.679443527509 7.3285815517095 9.830899861625 9.1227653833415 9.4293754779326 9.2355639756066 9.7468076833657 8.8998251058224 9.4320687478058 9.0579412070332 9.2379626916533 8.8973963856431 9.6319928193916 8.7052379148263 10.211584583147 9.9445353028529 10.177175533723 9.4035697553479 10.057446651698 9.6133283696022 9.8517206703224 9.373910585892 8.2372423262169 9.0273873520746 9.8914836511625 9.1919151874524 8.6095594074657 8.1254006484998 5.6693923406661 8.218176301543 7.3251749615629 9.1595333761099 8.7944827882554 9.9735621623962 9.314811288113 9.2507182489281 10.015150912195 8.6098623409739 9.3001659085616 9.2698055731194 8.8761719962212 8.7799780580844 8.8987116425583 8.3515086028035 9.3302757071305 8.739471046924 8.5800076541142 7.70020824557 9.5141558943955 8.8347414619291 9.7004395375166 8.5985283732464 8.9197726203036 8.208703288247 8.9944801466764 8.507862318739 8.4614729722706 9.0875168533566 9.1293709722637 7.8125719503318 6.4788460044566 8.0585183939744 9.4067158630387 8.7024860738889 7.7930316521561 8.043397944357 8.1459323455299 9.3725473191709 8.8565504153073 6.2866905877163 8.2209761762516 8.2219773286676 6.4523719257559 8.1652131030557 8.7277165713159 6.4907997318039 8.190824496207 8.2801824853931 7.6620185842173 6.4358702444271 8.197757736321 7.6403604926892 8.620052249684 8.0230927657713 8.835768764831 8.3108773459486 7.8457884938234 7.5549825608805 8.5405467278601 9.1291543825827 9.4338217886795 8.0598728424531 7.7431584502147 6.8991269488675 8.7577743272433 6.0852834558218 8.3939225628656 9.0721492003124 7.6068014460599 6.7741833993401 7.5060189992044 5.6748823516963 6.1700128515468 8.8577128766024 7.2934308123997 9.0923303062921 7.404764174703 7.0233650516265 7.2523555312423 9.16660750843 8.2230974843132 8.6607101275131 9.1944040663753 8.3767147165675 7.3576420605472 9.2475788230237 7.6174922276546 6.0813300520691 6.6451197904051 6.8564968255497 8.2524085017333 6.7975783133545 8.9369485638934 9.0147838474848 8.7721606409318 8.908166106052 9.2624383700065 8.1775209492464 6.2994833952124 7.8931204917124 8.7689706146455 6.0763800431052 9.5739478551345 8.7501135924416 7.6095997255195 9.4823101683123 6.9309725277025 8.9975243483194 6.4772383181396 9.0687644473143 7.0927545984287 8.6396161981555 6.415935650336 8.37987332563 6.4595087818695 9.3124672282834 5.6376276327247 8.6133421453066 8.4998299052673 5.9923377618938 4.1302220002738 7.0059831050864 7.9639511321475 7.6131872501003 7.0092634858286 8.587978306852 7.4738349971059 9.1888521431341 7.1673169286695 6.7128301261719 8.6289757672993 7.1361288783527 8.303458030435 6.5341288156701 7.2508038437211 7.9535953008041 6.7640661762054 8.975619979752 7.0664822414634 8.3708500071549 8.7963450496412 7.3656103553539 6.5681348643268 7.7368305149264 5.7412181549641 8.4125476449157 8.4138362361642 7.6451059867046 8.6149180626067 8.4794748341379 5.2236560067651 8.2886550898981 6.4311243156554 8.1016392577612 6.3806809577974 8.5660894704345 6.3490358896471 7.9590848626388 8.2232884425572 6.3920715010568 7.6741215515475 8.2344008829034 7.9642281974821 7.7462667278802 7.054726521698 5.8240417461489 7.1884374117093 6.6606778758497 6.1050503460341 8.2663184594511 6.5632362631795 7.7890823298129 5.1341366048979 8.3585009925079 6.1394856180732 7.9085281767009 8.6852635744023 8.748123397934 7.8919169329837 9.2965713547623 7.4016147609449 8.087696053471 7.6287615601306 6.8382772211709 5.6865811152306 7.4518617162785 5.9912935857005 5.4336297941741 6.6256816450403 5.8218144155406 6.7263562340724 5.6523698715715 6.2206077645319 4.6261917525523 6.6076426271313 6.3285617471743 6.5968178422382 5.9512238287718 5.9615661501434 5.4100494210855 6.4416831656339 6.3875829733417 6.7308770038045 6.4338562967217 5.7228107658129 6.6617504688409 5.9973630828532 5.9138936020252 7.9680415373109 6.6215331566574 6.2942061723621 6.4233025977738 6.2206349117791 7.1034802026837 6.1534570360568 8.1652556116603 8.7688818358343 8.3896063138421 7.7258866167241 5.9335872188984 7.4912020107214 7.2244121078887 8.5524578486156 6.7031200622516 6.0035764591178 8.2808035237928 6.7581212095257 5.7682452124686 6.7793990787349 7.484477268061 6.0643679286961 6.1571576437204 6.7746352139518 6.2917330656252 5.0543811816238 6.1531022480808 5.6800757338522 5.8133721175257 5.0637508754905 5.0983279858564 6.7607438630549 5.4189871242866 4.6524257280377 4.3760564629583 3.8205866985436 4.5967880486983 4.8929435830495 7.4309103561159 7.6328459040115 6.9298749811075 7.0704100420493 9.3360885617954 5.9774889284671 6.6358532361525 6.2969441178239 7.8734383534452 8.4231110669918 5.8798889777382 6.0875560521128 6.8073421427189 7.9568279010269 6.3838569051135 6.230107429405 7.8077307504112 6.5650111781991 5.3239349674815 5.811060903904 6.1153672501483 5.5753413164992 4.7833645178479 5.6812906068474 5.1499185993898 6.3459147075546 6.8137454836015 6.7462347592424 5.4661547313562 6.4092544046543 5.8865715109565 5.6576352035426 5.4017153473478 5.5210094127566 5.6933522567217 7.0891153439943 5.7092598387466 4.1037243162462 6.941626758936 6.0883589598491 5.2158088174493 5.3593526709291 6.1416031805363 5.154026826287 5.049718024989 6.5638377249148 7.2281719738956 7.2957559958048 5.0944995212785 4.1633155967073 5.6246305829069 6.6511726697354 6.5846165268791 6.6454608171088 6.9081210747858 5.925357982511 6.1113465667611 5.2360101593418 5.1477082755006 4.6442102925707 5.1334483735514 6.0188721394536 4.5651879601833 4.1059373602113 5.3263622448902 4.4736255215616 4.84219538294 5.4224833064333 5.0771184296177 5.8773548171853 5.663309526465 6.0654662524719 6.6033255368675 5.7705393162727 6.1123610703232 6.6701248185669 5.4235840425781 3.4133006696742 5.7712396989074 5.7452991620036 6.3835979661155 5.0803534453959 6.6021593452042 6.2387212517914 6.2740002953539 6.2149052735367 5.4751754306313 4.8523014989326 5.8974993769899 4.992852286924 7.1454875466126 7.4398645534385 5.3510583841118 6.1732045839679 4.9138858433976 6.3111229280827 6.9400366092794 7.0387589765582 5.2250779378109 5.6603194093764 3.8944216363981 5.3874859141686 4.8640285075498 6.9984059412525 5.7532723756114 6.0900368114026 5.2266965426744 4.6570353255795 5.7621783300321 5.1728526462204 6.030410847356 4.5762300629532 4.6329081067676 6.4404741783583 5.3736830910555 4.8117656138498 6.457988624208 5.5258813129821 6.3496616509317 4.8335661322234 5.6234417668639 5.5252283684337 4.8831971975263 5.7208771018216 5.2047422403204 6.8865124129754 5.9906950061949 5.7000294697129 5.5492834276884 5.8263678262413 6.360186044546 6.4459331653704 5.7753940539814 6.667849251506 5.990533804734 5.0115602727448 4.5102200993985 5.0401501594014 5.0893545236171 5.2651168124497 5.4177645755096 4.565001230656 6.1221669892752 6.6101856242325 3.4360571376954 4.8878207457829 6.068174272844 4.7331872442946 6.19559823398 5.1127900400956 5.029253935373 4.0122842251557 5.4105518028341 4.036789204212 4.2096555023495 5.1489859911672 4.6576875621757 5.1534292650306 6.0526620669467 5.2580330151244 4.2096173450683 4.4159651625277 4.9454953944496 5.3429505329898 6.554354599020