# vtk DataFile Version 3.0
d-2__ created by libgimli-v1.1.0
ASCII
DATASET UNSTRUCTURED_GRID
POINTS 570 double
14.5	0	0
14.25	0	0
14.386963504964	-0.201738469428	0
22.399299936458	-0.310870122736	0
22.129824335287	-0.229914148082	0
22.126320781198	-0.518791771445	0
8.472303742627	-0.591754876635	0
8.780507935475	-0.76092407121	0
8.82173151259	-0.349253271447	0
18.663262297679	-0.667179415955	0
18.934786529245	-0.453308328646	0
18.636898038907	-0.29588182328	0
4.016904362632	-0.85330676142	0
4.076038737616	-0.331410355179	0
3.713721571226	-0.470767763626	0
1.89953779852	-0.269343012166	0
1.633800503821	-0.203067612233	0
1.644492760828	-0.441295523531	0
4.368408037607	-0.250833874131	0
4.337474161742	-0.544420985055	0
4.67745607622	-0.378433532554	0
1.406172533733	-0.772361039307	0
1.913288206557	-1.218576310882	0
1.90687689783	-0.651895683444	0
2.5	0	0
2.25	0	0
2.347047126858	-0.185539804102	0
1.374000926997	-0.300418771701	0
1.25	0	0
1.114902662369	-0.201591505098	0
1.067401015567	-0.470108640981	0
5.75	0	0
5.699780065382	-0.324747799653	0
5.924584257371	-0.172748359932	0
0.883560935405	-0.231136840652	0
1	0	0
9	0	0
9.117836368049	-0.253904480787	0
2.625577516194	-0.346770599322	0
17.859079774019	-0.943547525024	0
17.535029634209	-1.703182852412	0
18.338018094476	-1.366069799339	0
19.932263871771	-0.826489183604	0
19.881635677668	-0.346204516721	0
19.622287080959	-0.573770479943	0
1.5	0	0
1.75	0	0
23.25	0	0
23	0	0
23.109690227386	-0.220340974338	0
2.75	0	0
2.142562771237	-0.172460438312	0
2	0	0
23.332392704446	-0.202507275941	0
23.5	0	0
19	0	0
18.75	0	0
18.888143078348	-0.195773419804	0
2.90152418742	-0.185685383897	0
7.612175045312	-0.180627982114	0
7.527150943175	-0.401430797998	0
7.881917737402	-0.30462800112	0
25.630635194756	-0.512020961038	0
25.243766894324	-0.80097755811	0
25.758031115142	-0.952821630144	0
3	0	0
28.84859809239	-0.201276387394	0
29	0	0
28.75	0	0
4	0	0
3.835807353334	-0.199536243303	0
3.106904732949	-0.178783649348	0
29.25	0	0
29.092446172194	-0.305987136665	0
13.5	0	0
13.667851890428	-0.185102765244	0
13.75	0	0
3.75	0	0
14.407363653886	-0.441423674912	0
14.125469935998	-0.279652141152	0
4.25	0	0
5.061980176718	-0.407989246181	0
5.335512032876	-0.269401530321	0
5.113979852892	-0.173834924157	0
11.882046000841	-0.812345557852	0
12.478640631525	-1.146569360669	0
12.244190771573	-0.565936619511	0
3.633270844505	-0.195395238442	0
14	0	0
18.378272976509	-0.514977451159	0
5.5	0	0
9.619519097921	-1.16461851757	0
10.030576753886	-1.587265312651	0
9.961661342999	-1.070235523667	0
5.25	0	0
5	0	0
13.157975569138	-0.830425793913	0
13.83833027638	-1.238601004239	0
13.671302359608	-0.710707966059	0
11.325917093147	-0.8366783502	0
11.612143285947	-0.506264798476	0
6	0	0
7	0	0
6.83842404292	-0.188923754932	0
7.11236984822	-0.391746146843	0
6.631875629497	-0.169178192832	0
6.75	0	0
3.21002197083	-0.595267231049	0
3.445510026908	-0.608065324465	0
3.362318141622	-0.306501255187	0
6.120159502895	-0.164221934939	0
4.538525595924	-0.906226152762	0
13.233775457127	-1.737244787017	0
4.5	0	0
16.138065841822	-0.472802517973	0
16.126746690205	-0.221608117926	0
15.859319180798	-0.326402762318	0
26.080401003391	-0.227842452866	0
26.25	0	0
26	0	0
3.019224421113	-0.401469974918	0
8.234901607028	-0.35771789179	0
8.518285578354	-0.242327591839	0
8.328777073389	-0.153008859619	0
7.25	0	0
7.400656881666	-0.195280611572	0
7.5	0	0
5.385509485898	-0.709154879541	0
5.948697127931	-0.745234910621	0
8.75	0	0
8.5	0	0
8.25	0	0
2.214249105773	-0.404278959534	0
2.896561357202	-0.792481120253	0
9.25	0	0
4.920911116561	-0.192028847294	0
9.651670336652	-0.200847798694	0
9.849824537955	-0.19917205686	0
9.75	0	0
10.095049354068	-0.315754204277	0
10	0	0
3.25	0	0
6.738406513564	-0.710129601907	0
7.121614580011	-0.943026074581	0
11.345829942703	-0.314788260019	0
11.25	0	0
11.104427225455	-0.188863495516	0
6.052412255932	-0.372556729023	0
6.373371846535	-0.274163514827	0
10.25	0	0
10.380281579003	-0.241092027437	0
10.5	0	0
10.75	0	0
10.909079077441	-0.189427130481	0
11	0	0
6.25	0	0
6.5	0	0
4.75	0	0
3.5	0	0
10.672815698565	-0.318467932684	0
10.772487906066	-0.787092734739	0
11.020900486567	-0.439266778492	0
8	0	0
7.75	0	0
11.5	0	0
11.619450354737	-0.231443672836	0
11.75	0	0
8.139317726831	-0.163309591658	0
12.25	0	0
12.158949464947	-0.235415698299	0
12.412455385193	-0.275030800337	0
12.929165084344	-0.221336108042	0
12.686337592177	-0.258437422252	0
12.900449535554	-0.462768612232	0
12.5	0	0
9.405755833308	-0.325979504745	0
9.111697192308	-0.594170467817	0
9.457257345083	-0.753685223931	0
18.101369157139	-0.618560521812	0
18.336839281097	-0.861122419318	0
10.385948631267	-0.570640149046	0
9.5	0	0
13.411260455969	-0.342646276848	0
12.643108055516	-0.590179775368	0
13.137744715761	-0.195204172124	0
13	0	0
21.25	0	0
21.358341816502	-0.326561417551	0
21.5	0	0
13.816492716597	-0.40394453634	0
20.25	0	0
20.423452336785	-0.313445603959	0
20.5	0	0
17.789350393153	-0.390447709085	0
17.987794057246	-0.401472255242	0
17.881276545163	-0.206424156589	0
19.564465692234	-0.270867872644	0
19.290725118801	-0.49926248604	0
16.392319441256	-0.29915360323	0
19.443730892406	-0.923508713428	0
20.457987075478	-0.803203365193	0
20.167450719332	-0.505159975143	0
0.103762538371	-0.253013629949	0
0.267057015134	-0.483604909932	0
0.374713194419	-0.2320817565	0
13.25	0	0
17.415572543912	-0.230682214253	0
17.5	0	0
17.25	0	0
18.108153655084	-0.208141099276	0
18.25	0	0
18	0	0
15.75	0	0
15.544586046819	-0.246453491997	0
15.122708481244	-0.193620038745	0
15.25	0	0
15	0	0
19.75	0	0
24.149237782749	-0.319013340846	0
23.842766599446	-0.577371105011	0
24.183995039967	-0.73159476451	0
13.871646321742	-0.17394291424	0
23.862588150518	-0.245417872715	0
16.84024277193	-0.203626765466	0
16.704049384397	-0.435508179396	0
17.112673188265	-0.38804641709	0
24.75	0	0
24.832880292394	-0.290571430318	0
25	0	0
16.40158555625	-0.755912194683	0
16.850299990829	-0.757941865332	0
17.75	0	0
23.567455674596	-0.325197491724	0
16.25	0	0
16	0	0
22.645812614293	-0.197864648876	0
22.75	0	0
22.5	0	0
16.75	0	0
17	0	0
24	0	0
26.914424714815	-0.337869958787	0
26.621963281699	-0.624626679172	0
26.977877660759	-0.778408201088	0
26.622424322919	-0.264588309935	0
19.34462271879	-0.199329831305	0
19.25	0	0
19.118057075065	-0.225686869553	0
19.5	0	0
26.75	0	0
27	0	0
27.5	0	0
27.604422363523	-0.298869962794	0
27.75	0	0
17.650384190064	-0.227839036584	0
18.343198956448	-0.236734208617	0
18.5	0	0
24.25	0	0
20.143897114391	-0.233773711865	0
25.5	0	0
25.25	0	0
25.344389320279	-0.31693710653	0
21.059546193318	-0.24845941382	0
20	0	0
25.842927934822	-0.248287716678	0
25.75	0	0
25.613904645132	-0.216025146631	0
21	0	0
11.763551406169	-1.481607093928	0
30.981104050195	-0.5526690913	0
30.873880294509	-0.217692518774	0
30.706626759758	-0.34945139905	0
20.75	0	0
20.85240828135	-0.178025243856	0
23.75	0	0
20.66289882074	-0.189089155251	0
30.204950808504	-0.791758966623	0
30.715535843381	-1.149995259266	0
30.543724897762	-0.572259098027	0
30	0	0
30.180216671806	-0.343473673313	0
30.25	0	0
23.229584388362	-0.458653998547	0
29.5	0	0
29.623391954444	-0.322069028408	0
29.75	0	0
21.618913855927	-0.233585823579	0
21.75	0	0
29.348490380579	-0.521100538161	0
29.36294710412	-0.230601226356	0
22	0	0
22.25	0	0
28.25	0	0
28	0	0
28.129259193923	-0.314252106503	0
28.44374413871	-0.484576386004	0
28.100199615755	-0.812038297775	0
28.649230646972	-0.871769248311	0
28.618403654115	-0.227691192115	0
28.5	0	0
28.387848605749	-0.205892081491	0
29.054768525933	-0.708603081552	0
29.344906532636	-0.846887322836	0
26.327430876245	-0.35930637997	0
10.349120516034	-1.04150119828	0
10.894920134778	-1.514321070539	0
24.59640839418	-0.191760546865	0
12.75	0	0
24.5	0	0
13.102881121377	-0.411296235356	0
25.099388239946	-0.214879887129	0
25.97986022697	-0.52841375324	0
24.398993403151	-0.196312410538	0
17.860840746535	-0.577367743328	0
17.566481510048	-0.529340016102	0
26.5	0	0
16.637148248735	-0.188015807345	0
18.183918302467	-0.396443618316	0
27.159348252167	-0.205297590358	0
27.357530053515	-0.198815038154	0
27.25	0	0
15.060354649709	-1.112587998155	0
15.51532665618	-1.043792149387	0
15.178150912169	-0.713100616689	0
10.051363365948	-0.719159376333	0
14.661248691948	-0.27865166374	0
14.75	0	0
27.868836823455	-0.217301839861	0
31	0	0
30.75	0	0
-0.020273477909	-1.415389842481	0
1.054972770973	-1.487485199502	0
0.512583677021	-1.0438154777	0
0.75	0	0
2.361419414365	-0.794513604096	0
29.890297721653	-0.2433406165	0
30.473599299501	-0.238575611274	0
30.5	0	0
30.660802173874	-0.161931182737	0
28.783812899585	-0.467926883932	0
4.937022539393	-0.72440615077	0
6.696914540879	-0.380672503721	0
7.434272221796	-0.695675918868	0
15.339606453815	-0.166204802571	0
15.281953315711	-0.388999642276	0
11.893544445085	-0.335972898148	0
12	0	0
9.753796445798	-0.478866225926	0
7.720012958977	-0.638314519759	0
21.871398197179	-0.313006985103	0
21.615176662754	-0.521922347305	0
21.856785525528	-0.665128848631	0
20.792152536902	-0.448319093295	0
21.109577821412	-0.527879642114	0
21.360297691811	-0.734200004244	0
15.547854961707	-0.580173571081	0
24.496861814148	-0.467031445896	0
25.067351422649	-0.463427753535	0
24.81263825963	-0.684738154192	0
22.865620821195	-0.218348593093	0
23.443705587002	-0.773171720633	0
27.277617447467	-0.489224417775	0
27.863714790534	-0.471681393437	0
26.239117668995	-0.863279739365	0
29.896797054636	-0.547765129844	0
29.612773839625	-0.699757135752	0
29.867172666547	-0.87444432816	0
29.610354212963	-1.521444655905	0
29.59548165142	-1.071765512911	0
29.115129171034	-1.220660174798	0
31.345359428525	-0.458952144926	0
31.144859415042	-0.241304201582	0
15.919565295974	-0.746550096707	0
16.063006820294	-1.289595303187	0
16.5	0	0
14.900855313538	-0.178071167744	0
14.161016743654	-0.72559708689	0
19.011498044983	-0.834202892304	0
16.760433281999	-1.263698818643	0
17.280361389946	-0.931704507314	0
-0.627742252535	-0.296285438777	0
-1	0	0
-1	-0.5	0
0.625738545692	-0.228405936136	0
0.5	0	0
3.313957665883	-0.865581185485	0
3.619156095452	-0.800599314657	0
[...]
CELL_DATA 986
SCALARS 100.00_0.25 double 1
LOOKUP_TABLE default
6.0400937908742 6.497663265959 6.6705188034789 5.6231883305208 5.1887743360034 6.5618207646174 6.0208359966911 5.2053805065847 6.8103769313718 6.8742053063988 6.4531566649286 5.9927603139418 6.6797151433185 7.2308635751787 6.9327578487005 6.8844034221966 4.1908761273946 6.2364121001114 6.563912295935 6.2568301191062 6.9194986776687 6.88705526819 5.2221756060022 6.768951502034 7.1609360376374 6.478339003571 6.7690725361857 5.3149349069049 6.3266237515013 6.3869082304625 6.1357321043029 6.1858267481746 6.7528973744132 6.2699558019273 6.057705381227 6.6170573584838 6.8141591097554 5.8779437442153 5.074188668356 6.0216623013415 6.9138570866265 5.5096623325894 6.1406016058927 4.4514346412229 5.3906758555019 5.4911722832542 5.4325934167411 5.7717655675851 5.712914001867 7.1691447240454 6.9125630583824 7.3551275432796 5.0994091289249 6.664516138057 5.4222609438581 6.3801154530674 4.4050914529486 7.3834254940338 6.7321393354638 7.7403142737384 6.6460471242705 6.0741270138818 7.3820146389006 7.0049446121532 8.187802375369 7.2984348502877 5.5651219052997 5.362827756428 7.4774853455972 5.7755901749667 7.9277605047407 6.4976684131335 6.7569254659245 7.0578520226873 6.8550316925845 5.6015187603588 7.6589276279214 5.9978124213978 7.909794625411 7.401889041369 6.0551586499536 5.0466191671141 6.145107902097 6.4897952784728 7.1940882239957 7.1518833730123 7.0259724188736 6.865775122032 6.6189535825572 8.3643105817078 5.7102532865922 6.7348142778981 5.7387384378066 7.7149183209798 6.5415923575988 6.8138037082419 7.6349942580807 6.9876508551415 6.5939679957624 5.909184376799 6.8597110800596 6.6565988550803 6.6724993102654 6.9969809247935 5.7604312863152 5.2639056404651 6.7243244437196 6.3284764781008 6.2781005220563 6.7663515309697 6.1871208858521 6.962568979506 6.6939297803718 9.8690593887643 6.6321341652007 8.4219766028198 6.9948741338284 6.4700795204339 6.5208586067361 6.719981832089 5.7249657945316 6.8738558801236 6.5986626907887 5.8153209139506 6.3922412169309 6.0876406984743 5.7346189671261 6.044079705159 7.0738077576331 5.8556776878674 7.1014647962307 7.4035792384016 7.7310030616687 6.661787683438 5.5931576994613 6.1825053576135 6.6706260084944 7.026493256946 8.7641436907428 6.2921431745288 7.5049555793246 7.1624363836412 6.3339073947398 5.8142698910753 7.4866014934215 7.0707162100605 7.6067724982543 5.4809828873957 6.334401531575 5.8233959021982 7.9135196809118 8.7858615311675 5.7815139498344 7.550302265028 7.9564531809026 8.0197690707521 6.3976156198904 6.5539308527803 7.0665361376539 5.8674258407183 8.131452224413 6.9596297821205 8.8264562017993 8.25466771341 6.1521152891237 9.3203633913118 4.9031203463228 7.018942068101 7.5110838828096 11.072581193896 8.0271435148287 6.3942317282711 5.4425131943788 7.8310963642872 6.1907030616287 6.4546218360989 6.3930235566332 7.3912512726808 6.570075927602 6.8032657393349 5.9016649721373 7.4914184522216 7.0222850537205 5.40306612526 5.5087621336245 6.2611003178201 6.9868602475265 6.2026288742694 6.5485407498494 5.7302466249584 5.9233721928943 5.0430189153301 9.3101128671114 5.0760492749307 7.9351451801398 9.3516227484491 5.0394325464824 7.738616566217 7.831338989039 6.4809204873451 7.4080922741616 6.3002800817631 6.8771768639368 7.4206642643048 6.7936454407959 6.0473499465353 6.5096335761462 6.4249709875876 6.5437793788793 6.0414193852347 5.5298430038835 6.9606165732385 5.9038447568923 6.3152263604622 7.2183022846172 6.9517980124231 4.566273934987 7.1253261279349 5.0469034869738 6.3009342412517 7.5690846498004 6.4980551924172 6.8952689569524 8.4648495510875 7.3676780392092 6.8531885584689 6.613214078591 7.4021785514831 6.3292723825803 6.7298407920696 9.6505123594289 4.6315840228246 6.9739744659098 6.7923266525211 6.6508653009077 6.1188832509853 6.5178827877135 5.4622460525429 6.7602370395957 6.4321641830162 7.3419886182846 6.8422565322985 7.0325514406274 5.5311655106313 10.254629275881 6.5573449172392 6.14036534242 9.6308394713393 6.0606897287961 7.2276987731004 5.6877340115802 7.401789159671 5.2283504056067 6.3752873401079 7.6751965065425 5.7876957321686 6.7042780650504 6.7119393130095 6.8665433331774 5.5523099316105 6.0383534347524 5.8674998814718 6.205850362213 6.0305915031343 6.2327450942949 7.3135404031339 6.198898189567 5.9294050196912 7.3920492115959 6.6231918968271 6.0100158329252 7.3810980418065 6.4350683004293 7.1922726401122 6.4830365751892 7.0935538242398 6.2977097041338 6.6122796557069 6.7670469071551 6.6097865730918 6.1474940082944 7.0206222644522 6.7345507875481 6.8050032353289 5.5871870499437 6.7644668757939 6.6205269545341 7.000823341784 7.9334933557134 7.1059037505121 6.7223503148061 6.3721213527114 6.0580664855172 5.7915187353996 6.5257246030417 8.1040847089259 6.585397321422 6.9818433266375 7.8284168580637 7.3928001663549 6.0198841733993 7.9964866265059 7.6781429914209 7.2574488298567 5.3532168549649 6.161226738042 7.7385040842411 7.2778945632678 6.9617822791366 6.4387393591632 6.7598441551511 6.689608204137 7.3764597381465 6.9763595115528 6.4352105945152 6.1252438214942 5.5564671246585 5.9249448831359 6.5984206044485 6.2692878548812 6.5464787252908 7.0680311977766 7.7133946722271 6.8430894002275 6.1944934302433 6.4754770285237 6.1882941785146 5.6246771688679 5.7580074076281 4.5303627717496 5.6112178623046 6.2452612863043 8.2376744530101 6.6496557260689 6.6510318542015 6.4286398845724 6.4022060153881 7.9489955172558 6.1302483095984 6.3169491949619 4.594338783714 4.8802111252117 7.443716362278 7.1111169119428 6.8718965147748 6.7265209977821 8.2363994058494 9.5284231580096 7.1417770941675 6.01110673149 6.6048207848176 5.1786740549284 6.2695435882013 4.9856323633682 5.8298745534436 5.4428535631846 5.197700123244 6.0310486063357 5.1500973068673 6.828118570089 5.9052052493412 4.6240293726409 5.9169269297999 5.9091585557308 6.0200470949899 5.3486693952628 4.9514593569272 4.5445317874799 6.2938837209993 6.9607980430782 6.4158299405226 6.802228942417 5.455526086912 4.932885694622 5.7862457540094 6.0697566566941 5.4949038589241 6.997137110791 7.4429322612747 5.3448995124712 4.7550089995273 6.0099911568627 6.4982089079885 6.339899815681 7.653056561068 7.1650145770123 6.185058970437 6.5702258125942 5.648522942288 6.9559650512434 6.3741637691637 6.1035291523521 5.0897479484047 6.8517951425013 6.1247172872019 6.8708629658644 5.7936944015746 7.1203017341388 7.1524784007277 6.2832221942734 6.2796845130383 7.1254345616252 6.7345074004696 7.0480557533648 5.0380513205461 7.6386886911355 5.2412769872787 7.0328089902069 7.3836078267584 6.1481569254037 7.0361487257647 6.4499242213831 6.5257469093903 6.0476785111866 6.5598210366128 7.0543171451863 5.6240248315949 5.9334144478027 5.0803224176805 5.8915883641532 5.1844922003183 5.80088563413 6.3731559194344 5.7923685532878 5.8722435107753 6.9867660420395 5.733013005947 5.4737202239685 6.1618908814831 5.5324255584592 5.8131454445252 6.719179895457 6.4373882363166 8.6626269981412 4.5864935255414 6.7261387759173 4.9992416262835 7.0938467792326 4.4886404519796 6.8619767839006 4.6232032995762 6.4529831164715 7.5161075437857 6.7723509439314 4.6783576333231 6.154241477023 4.2518367283229 7.1641637180777 5.7161567249165 6.1079090299571 6.8387602643967 6.7271259150855 6.7282741868121 5.4408063826886 4.8723717341059 4.0516003961266 5.7852205379836 6.857608927897 6.0782935755174 6.4500325288807 5.8745745584335 6.6674636886437 6.1394472067078 6.4976130186657 5.7005755027187 4.2910304886943 4.9261055731515 5.6164956819328 4.7056894918803 4.3674641918664 4.8039463095308 6.0046865356404 5.2899160631223 4.3228389260179 3.9865954625659 6.8627027962292 6.276445344679 6.2647393855453 5.4461195497449 4.5339024374815 5.2829241012443 4.5178449403359 4.9346661262261 7.2532585649443 6.8041572580865 5.7168814192772 6.032999775505 6.6801792781831 5.9349142207436 6.4046909808996 4.1558941372035 6.5145301746542 7.1225110186372 6.8585585135537 5.7592947530315 5.0797138628848 4.2510063973146 3.7250246599 5.1872580947293 6.4943873302688 5.4713510023809 5.6311108864162 4.7664187325562 5.3618213684624 6.2446715328851 7.1469132567039 4.838371943292 6.2455981608114 7.1268624224512 3.9177074550861 6.4474306475019 9.0545408528953 6.0886492397913 4.5326004935786 5.9875514838293 6.5235018949071 5.1845358944491 4.9529760250003 4.3128854724489 6.4176969610273 6.4596824917175 4.5559512167801 5.9863222447974 6.5711992597152 5.1164830677067 4.8300017530835 4.2833567861626 6.2856564875329 6.1044228415092 5.6143891941888 6.2422773671936 4.7047661847807 6.2250706881369 7.9999901050996 6.1576730532763 4.6647924146293 6.7354790821301 6.3416675295459 4.4786293397323 3.5426236546366 6.1760948142773 4.9130004455958 6.7081296154759 6.650526763232 4.5375226162848 6.4373400720208 3.6320144078094 4.8208155969771 3.4558527531855 4.0252315610239 6.5859294289628 4.766768456428 5.4654191214992 4.7252293544408 6.706417666489 6.2579868234994 5.2040480970807 6.4071796136139 4.6067718304309 4.7887475633447 5.1557923609131 4.8148321312234 5.6675158098512 4.7655575932664 5.8397040805624 7.2237274013608 4.5122656389081 4.3732181699514 5.6125140189516 5.1062049967597 6.7805627419621 4.9491041351405 6.5964419758619 5.5680786919412 6.5483969208991 6.2897702017961 4.6307893536011 3.6638379386745 6.0150487697823 5.6448565868386 5.4435569673095 5.4611261916885 7.5121780635635 6.6372963993704 4.5792225038417 6.0321662729772 6.2743852368246 6.1143477384816 6.0965710119869 5.6187356368407 5.9078126953787 5.3774273673487 3.7702943188202 5.2127251891619 3.8691431034997 6.3564067445613 5.9654465428737 5.687603394451 4.7829415328612 5.4685440160108 6.2143385796505 5.9009751217323 5.7677772603012 4.7711699533256 4.1496055148253 3.6626292405634 4.2792157181466 5.3978748530566 6.6235241758774 6.081618947916 5.5908363024323 4.9986052166615 4.3108493919327 7.0705555789099 4.5599117555219 7.385990318455 6.1717045202046 3.5150121849696 5.9844748648356 6.6669229605753 5.639453019764 6.2896366078272 5.8300375578184 4.7021345211449 4.7547034059431 4.6119050986319 5.6758399298706 5.5728079297502 3.7527578099613 4.2888197838804 3.8688033986982 4.3868581777708 3.987327551604 6.4009841646221 4.6409075312928 6.5586924990889 4.2006596191634 4.382305336377 4.4492490042533 5.8112238693013 4.053660573824 3.9882925976716 5.1236430253377 4.3289629110412 3.5498497653874 4.9826562503891 7.1539525124228 6.310944862062 5.5317836016099 3.8782110195455 4.4119314099464 4.0986104450993 5.3682448496478 5.7698096684885 5.2715597612499 5.5336837487475 5.8489308844856 5.209392759074 4.9132049074216 5.478568899753 5.1714510314913 5.3538410889225 4.4960868220129 5.2663224223696 5.4243189459602 4.8975213764633 5.371785089082 5.1802433386236 5.4022639082287 5.5455929826203 5.7020914836004 5.0677398570174 5.4673425281496 3.8886600563018 4.6991818383245 6.4041970092837 4.1539807998876 6.6515852497494 5.6159972096585 5.1051556511795 5.168181332565 5.3818357621228 4.3894335040672 4.2213511421091 4.2939043406054 4.1374766828811 4.5611421075633 6.5368544446884 7.0924933063912 6.7105218107732 7.3804239454244 4.1396900006 3.4863812326864 4.553710168292 4.7914647052549 4.891990126362 4.7034108175633 4.8727672239106 4.4537061390311 5.1089153737098 5.7041466690318 5.3694362897125 5.3586633525125 5.2678256400869 4.9650074226074 5.0261015943871 4.2828357692745 5.3269581723912 5.2525682059782 4.0949585304578 3.3535004574934 3.2286566945597 3.8956291316658 3.7255628882002 5.4658193301856 4.8754993763618 5.7428892428411 5.2126518170598 6.6033528263179 7.0057418707256 3.6568433173169 4.0357894709582 6.0780860293736 4.5993210214111 3.4909158579333 3.6667134714421 4.4111550284038 5.7862051190812 6.669634403884 5.3393611879725 6.1082235255676 4.3585409368821 4.5915694381426 6.7249276987665 4.4367782159154 5.0970944324074 7.4546859826838 4.2149090515017 3.885622188554 6.1209080782759 6.2046275247402 4.3713888027713 4.090761163048 3.7985471359827 5.155942476553 3.8179928319391 4.174014475161 3.4036433007726 3.4675318488043 3.7229153166976 6.8506117186574 4.1484659650798 4.8996509985023 3.9735582091873 4.4672751898397 3.9602188904563 4.7009575293569 6.2399773118345 3.4237895527503 5.3111062496236 3.2336140553853 3.6900624998798 4.6168273428267 3.849976148695 3.5683779520991 3.6858398036756 4.0468558034949 3.7981450168831 4.0980948174561 3.62454964434 5.6265986582008 4.4054700880318 3.5294277291384 3.6737613306017 4.1734037239041 3.9660755962303 5.6059410264119 5.5444531804779 5.2924371152395 5.8368208674905 5.1768947226937 5.4852052191629 4.900042914517 4.9497347983783 5.3367057507191 5.2373822391484 4.5240076264139 4.896285539147 4.9826843136229 5.2300652242072 4.9313872552526 3.2681862003094 4.2557471537371 4.4561848236921 4.0877559359136 3.9236447749446 3.5389066354761 3.6700842387659 3.4704644270725 4.1251241034624 3.461743127798 4.0031714733362 4.3639696490542 6.8888648615196 3.8149581631035 4.5454562196102 4.4327464872364 7.2498994256989 5.4862516716898 3.5454489416492 3.5043886169911 3.3292285656737 3.9101794968567 4.445356636841 6.9798923289876 3.4619010324272 3.7869276444548 3.9841316737126 3.2018390211636 4.1797566933293 4.6863038160382 4.2950399230183 4.237844068556 3.6144602278304 4.1163181652059 3.9759262786146 3.5298160141065 4.0403598121516 3.2446364721117 3.5110377499107 4.0524000017172 4.0555099831746 3.2384088342832 3.408716312192 3.2332392181607 3.367625103119 3.2819267133973 3.3792570608672 3.3302093583542 3.9748247277909 3.8626698385099 4.6480866126413 4.7655752243007 3.5253983636063 3.362907722088 3.2478194408761 4.0345726531855 3.394469859372 3.3731414403454 3.2921999694336 3.3176365931323 3.2888801183181 3.6132539159535 3.4016735433883 3.9720710992739 3.2562866560924 3.3100907553957 3.7706505979106 3.711448608894 3.1833200505986 3.1833174237804 3.2603426612595 3.3683999967959 3.2487062995769 3.2597650732932 3.2157113485508 3.3358240452431 3.3463037810004 3.2686727847034 3.6476689068238 3.3399131650393 3.4708505437451 3.220790353421 4.0839783771625 3.1661687300272 3.3188543483665 3.2035705708077 3.1933666221608 3.2363147040444 3.2299130745924 3.3865741776288 3.4212805128602 3.4815438895383 3.9584789048191 3.2469456102276 3.5965234004157 3.1979718391086 3.1800404093241 3.4567422220444 4.0853466830625 3.3500468565364 3.28396621445 3.2705846603915 3.9764422946857 3.5051141903775 4.1838047500926 3.7327847177813 3.4133844450642 3.4031718851068 3.3269377802754 3.2294130130422 3.7122494340973 3.5536485915493 3.4497640507326 3.542537209387 3.7152606449587 3.576773232284 3.9008667390384 3.1925003716675 3.4777995444326 4.4162588043721 4.0520657233044 3.744116916056 3.3780509187568 3.8709873319496 3.249456607963 3.5786566691017 3.451059198291 4.0302649741451 3.5490696999982 3.7283475019231 4.1583104163852 3.4874405109982 4.123063103722 3.6532894726073 3.6306855115139 3.9015838166582 3.9702111832401 4.0899412265536 3.7223259356503 4.0498482995205 3.4258861914957 3.3953142703665 3.2985847984116 3.3550022724102 3.5358341180561 4.0680509863006 4.0205890069524 3.8892591882164 3.6514209535038 3.954704176353 3.98254568317 4.1725237733893 4.5049339672058 4.2395171396962 3.5203871789831 3.57307620493 3.428630324838 3.6498176629783 3.9302240515889 3.3483530815257 3.617966077651 3.8330184412249 3.530019258711 3.6889727159509 3.5757597235445 3.8815175377092 3.9344304518951 3.9982995785085 3.822970762745 4.2224595267165 4.228117898432 4.1000848872818 4.076108952879 4.0029796274744 4.1851147913212 4.2207765190508 4.1856009144014 4.1297064957603 3.8487409836242 3.5399385243309 4.3704977322567 4.0009271921417 3.7739198898346 3.9214778216805 4.0855267353928 4.1464879499499 3.7940364219277 3.9611411470052 4.2624278204853 4.2763124021965 4.3541565224098 4.3714952981924 4.1252579346518 4.4167506709263 4.3703960039902 
SCALARS 200.00_0.48 double 1
LOOKUP_TABLE default