# vtk DataFile Version 3.0
d-2__ created by libgimli-v1.1.0
ASCII
DATASET UNSTRUCTURED_GRID
POINTS 570 double
14.5	0	0
14.25	0	0
14.386963504964	-0.201738469428	0
22.399299936458	-0.310870122736	0
22.129824335287	-0.229914148082	0
22.126320781198	-0.518791771445	0
8.472303742627	-0.591754876635	0
8.780507935475	-0.76092407121	0
8.82173151259	-0.349253271447	0
18.663262297679	-0.667179415955	0
18.934786529245	-0.453308328646	0
18.636898038907	-0.29588182328	0
4.016904362632	-0.85330676142	0
4.076038737616	-0.331410355179	0
3.713721571226	-0.470767763626	0
1.89953779852	-0.269343012166	0
1.633800503821	-0.203067612233	0
1.644492760828	-0.441295523531	0
4.368408037607	-0.250833874131	0
4.337474161742	-0.544420985055	0
4.67745607622	-0.378433532554	0
1.406172533733	-0.772361039307	0
1.913288206557	-1.218576310882	0
1.90687689783	-0.651895683444	0
2.5	0	0
2.25	0	0
2.347047126858	-0.185539804102	0
1.374000926997	-0.300418771701	0
1.25	0	0
1.114902662369	-0.201591505098	0
1.067401015567	-0.470108640981	0
5.75	0	0
5.699780065382	-0.324747799653	0
5.924584257371	-0.172748359932	0
0.883560935405	-0.231136840652	0
1	0	0
9	0	0
9.117836368049	-0.253904480787	0
2.625577516194	-0.346770599322	0
17.859079774019	-0.943547525024	0
17.535029634209	-1.703182852412	0
18.338018094476	-1.366069799339	0
19.932263871771	-0.826489183604	0
19.881635677668	-0.346204516721	0
19.622287080959	-0.573770479943	0
1.5	0	0
1.75	0	0
23.25	0	0
23	0	0
23.109690227386	-0.220340974338	0
2.75	0	0
2.142562771237	-0.172460438312	0
2	0	0
23.332392704446	-0.202507275941	0
23.5	0	0
19	0	0
18.75	0	0
18.888143078348	-0.195773419804	0
2.90152418742	-0.185685383897	0
7.612175045312	-0.180627982114	0
7.527150943175	-0.401430797998	0
7.881917737402	-0.30462800112	0
25.630635194756	-0.512020961038	0
25.243766894324	-0.80097755811	0
25.758031115142	-0.952821630144	0
3	0	0
28.84859809239	-0.201276387394	0
29	0	0
28.75	0	0
4	0	0
3.835807353334	-0.199536243303	0
3.106904732949	-0.178783649348	0
29.25	0	0
29.092446172194	-0.305987136665	0
13.5	0	0
13.667851890428	-0.185102765244	0
13.75	0	0
3.75	0	0
14.407363653886	-0.441423674912	0
14.125469935998	-0.279652141152	0
4.25	0	0
5.061980176718	-0.407989246181	0
5.335512032876	-0.269401530321	0
5.113979852892	-0.173834924157	0
11.882046000841	-0.812345557852	0
12.478640631525	-1.146569360669	0
12.244190771573	-0.565936619511	0
3.633270844505	-0.195395238442	0
14	0	0
18.378272976509	-0.514977451159	0
5.5	0	0
9.619519097921	-1.16461851757	0
10.030576753886	-1.587265312651	0
9.961661342999	-1.070235523667	0
5.25	0	0
5	0	0
13.157975569138	-0.830425793913	0
13.83833027638	-1.238601004239	0
13.671302359608	-0.710707966059	0
11.325917093147	-0.8366783502	0
11.612143285947	-0.506264798476	0
6	0	0
7	0	0
6.83842404292	-0.188923754932	0
7.11236984822	-0.391746146843	0
6.631875629497	-0.169178192832	0
6.75	0	0
3.21002197083	-0.595267231049	0
3.445510026908	-0.608065324465	0
3.362318141622	-0.306501255187	0
6.120159502895	-0.164221934939	0
4.538525595924	-0.906226152762	0
13.233775457127	-1.737244787017	0
4.5	0	0
16.138065841822	-0.472802517973	0
16.126746690205	-0.221608117926	0
15.859319180798	-0.326402762318	0
26.080401003391	-0.227842452866	0
26.25	0	0
26	0	0
3.019224421113	-0.401469974918	0
8.234901607028	-0.35771789179	0
8.518285578354	-0.242327591839	0
8.328777073389	-0.153008859619	0
7.25	0	0
7.400656881666	-0.195280611572	0
7.5	0	0
5.385509485898	-0.709154879541	0
5.948697127931	-0.745234910621	0
8.75	0	0
8.5	0	0
8.25	0	0
2.214249105773	-0.404278959534	0
2.896561357202	-0.792481120253	0
9.25	0	0
4.920911116561	-0.192028847294	0
9.651670336652	-0.200847798694	0
9.849824537955	-0.19917205686	0
9.75	0	0
10.095049354068	-0.315754204277	0
10	0	0
3.25	0	0
6.738406513564	-0.710129601907	0
7.121614580011	-0.943026074581	0
11.345829942703	-0.314788260019	0
11.25	0	0
11.104427225455	-0.188863495516	0
6.052412255932	-0.372556729023	0
6.373371846535	-0.274163514827	0
10.25	0	0
10.380281579003	-0.241092027437	0
10.5	0	0
10.75	0	0
10.909079077441	-0.189427130481	0
11	0	0
6.25	0	0
6.5	0	0
4.75	0	0
3.5	0	0
10.672815698565	-0.318467932684	0
10.772487906066	-0.787092734739	0
11.020900486567	-0.439266778492	0
8	0	0
7.75	0	0
11.5	0	0
11.619450354736	-0.231443672836	0
11.75	0	0
8.139317726831	-0.163309591658	0
12.25	0	0
12.158949464947	-0.235415698299	0
12.412455385193	-0.275030800337	0
12.929165084344	-0.221336108042	0
12.686337592177	-0.258437422252	0
12.900449535554	-0.462768612232	0
12.5	0	0
9.405755833308	-0.325979504745	0
9.111697192308	-0.594170467817	0
9.457257345083	-0.753685223931	0
18.101369157139	-0.618560521812	0
18.336839281097	-0.861122419318	0
10.385948631267	-0.570640149046	0
9.5	0	0
13.411260455969	-0.342646276848	0
12.643108055516	-0.590179775368	0
13.137744715761	-0.195204172124	0
13	0	0
21.25	0	0
21.358341816502	-0.326561417551	0
21.5	0	0
13.816492716597	-0.40394453634	0
20.25	0	0
20.423452336785	-0.313445603959	0
20.5	0	0
17.789350393153	-0.390447709085	0
17.987794057246	-0.401472255242	0
17.881276545163	-0.206424156589	0
19.564465692234	-0.270867872644	0
19.290725118801	-0.49926248604	0
16.392319441256	-0.29915360323	0
19.443730892406	-0.923508713428	0
20.457987075478	-0.803203365193	0
20.167450719332	-0.505159975143	0
0.103762538371	-0.253013629949	0
0.267057015134	-0.483604909932	0
0.374713194419	-0.2320817565	0
13.25	0	0
17.415572543912	-0.230682214253	0
17.5	0	0
17.25	0	0
18.108153655084	-0.208141099276	0
18.25	0	0
18	0	0
15.75	0	0
15.544586046819	-0.246453491997	0
15.122708481244	-0.193620038745	0
15.25	0	0
15	0	0
19.75	0	0
24.149237782749	-0.319013340846	0
23.842766599446	-0.577371105011	0
24.183995039967	-0.73159476451	0
13.871646321742	-0.17394291424	0
23.862588150518	-0.245417872715	0
16.84024277193	-0.203626765466	0
16.704049384397	-0.435508179396	0
17.112673188265	-0.38804641709	0
24.75	0	0
24.832880292394	-0.290571430318	0
25	0	0
16.40158555625	-0.755912194683	0
16.850299990829	-0.757941865332	0
17.75	0	0
23.567455674596	-0.325197491724	0
16.25	0	0
16	0	0
22.645812614293	-0.197864648876	0
22.75	0	0
22.5	0	0
16.75	0	0
17	0	0
24	0	0
26.914424714815	-0.337869958787	0
26.621963281699	-0.624626679172	0
26.977877660759	-0.778408201088	0
26.622424322919	-0.264588309935	0
19.34462271879	-0.199329831305	0
19.25	0	0
19.118057075065	-0.225686869553	0
19.5	0	0
26.75	0	0
27	0	0
27.5	0	0
27.604422363523	-0.298869962794	0
27.75	0	0
17.650384190064	-0.227839036584	0
18.343198956448	-0.236734208617	0
18.5	0	0
24.25	0	0
20.143897114391	-0.233773711865	0
25.5	0	0
25.25	0	0
25.344389320279	-0.31693710653	0
21.059546193318	-0.24845941382	0
20	0	0
25.842927934822	-0.248287716678	0
25.75	0	0
25.613904645132	-0.216025146631	0
21	0	0
11.763551406169	-1.481607093928	0
30.981104050195	-0.5526690913	0
30.873880294509	-0.217692518774	0
30.706626759758	-0.34945139905	0
20.75	0	0
20.85240828135	-0.178025243856	0
23.75	0	0
20.66289882074	-0.189089155251	0
30.204950808504	-0.791758966623	0
30.715535843381	-1.149995259266	0
30.543724897762	-0.572259098027	0
30	0	0
30.180216671806	-0.343473673313	0
30.25	0	0
23.229584388362	-0.458653998547	0
29.5	0	0
29.623391954444	-0.322069028408	0
29.75	0	0
21.618913855927	-0.233585823579	0
21.75	0	0
29.348490380579	-0.521100538161	0
29.36294710412	-0.230601226356	0
22	0	0
22.25	0	0
28.25	0	0
28	0	0
28.129259193923	-0.314252106503	0
28.44374413871	-0.484576386004	0
28.100199615755	-0.812038297775	0
28.649230646972	-0.871769248311	0
28.618403654115	-0.227691192115	0
28.5	0	0
28.387848605749	-0.205892081491	0
29.054768525933	-0.708603081552	0
29.344906532636	-0.846887322836	0
26.327430876245	-0.35930637997	0
10.349120516034	-1.04150119828	0
10.894920134778	-1.514321070539	0
24.59640839418	-0.191760546865	0
12.75	0	0
24.5	0	0
13.102881121377	-0.411296235356	0
25.099388239946	-0.214879887129	0
25.97986022697	-0.52841375324	0
24.398993403151	-0.196312410538	0
17.860840746535	-0.577367743328	0
17.566481510048	-0.529340016102	0
26.5	0	0
16.637148248735	-0.188015807345	0
18.183918302467	-0.396443618316	0
27.159348252167	-0.205297590358	0
27.357530053515	-0.198815038154	0
27.25	0	0
15.060354649709	-1.112587998155	0
15.51532665618	-1.043792149387	0
15.178150912169	-0.713100616689	0
10.051363365948	-0.719159376333	0
14.661248691948	-0.27865166374	0
14.75	0	0
27.868836823455	-0.217301839861	0
31	0	0
30.75	0	0
-0.020273477909	-1.415389842481	0
1.054972770973	-1.487485199502	0
0.512583677021	-1.0438154777	0
0.75	0	0
2.361419414365	-0.794513604096	0
29.890297721653	-0.2433406165	0
30.473599299501	-0.238575611274	0
30.5	0	0
30.660802173874	-0.161931182737	0
28.783812899585	-0.467926883932	0
4.937022539393	-0.72440615077	0
6.696914540879	-0.380672503721	0
7.434272221796	-0.695675918868	0
15.339606453815	-0.166204802571	0
15.281953315711	-0.388999642276	0
11.893544445085	-0.335972898148	0
12	0	0
9.753796445798	-0.478866225926	0
7.720012958977	-0.638314519759	0
21.871398197179	-0.313006985103	0
21.615176662754	-0.521922347305	0
21.856785525528	-0.665128848631	0
20.792152536902	-0.448319093295	0
21.109577821412	-0.527879642114	0
21.360297691811	-0.734200004244	0
15.547854961707	-0.580173571081	0
24.496861814148	-0.467031445896	0
25.067351422649	-0.463427753535	0
24.81263825963	-0.684738154192	0
22.865620821195	-0.218348593093	0
23.443705587002	-0.773171720633	0
27.277617447467	-0.489224417775	0
27.863714790534	-0.471681393437	0
26.239117668995	-0.863279739365	0
29.896797054636	-0.547765129844	0
29.612773839625	-0.699757135752	0
29.867172666547	-0.87444432816	0
29.610354212963	-1.521444655905	0
29.59548165142	-1.071765512911	0
29.115129171034	-1.220660174798	0
31.345359428525	-0.458952144926	0
31.144859415042	-0.241304201582	0
15.919565295974	-0.746550096707	0
16.063006820294	-1.289595303187	0
16.5	0	0
14.900855313538	-0.178071167744	0
14.161016743654	-0.72559708689	0
19.011498044983	-0.834202892304	0
16.760433281999	-1.263698818643	0
17.280361389946	-0.931704507314	0
-0.627742252535	-0.296285438777	0
-1	0	0
-1	-0.5	0
0.625738545692	-0.228405936136	0
0.5	0	0
3.313957665883	-0.865581185485	0
3.619156095452	-0.800599314657	0
[...]
CELL_DATA 986
SCALARS 160.00_0.43 double 1
LOOKUP_TABLE default
9.6317597942309 9.7299263068228 8.432824180341 6.736435608586 5.9409079798795 9.38354324869 8.8156321962558 5.940517212472 10.190285789893 8.9019144624445 8.0547200627274 9.3055163605781 8.4207085196644 11.425042942301 10.380596035186 8.4858101901593 4.4651250062711 7.7792529637976 10.144713974402 11.388846869013 10.242609939951 10.065912390074 11.704213031097 10.10751420674 9.8733814564762 9.5956740971732 9.3402172613035 6.4462530450434 9.2684297301246 10.301656204918 7.4452680492038 9.6712182464727 11.110776122296 11.205094846533 6.0699118525481 10.185812487506 11.365537016375 9.1551080232749 5.782201401698 6.0781412329559 9.5062821352526 6.2094011419539 10.117486584821 4.7446476788997 9.9403318620661 8.9096163352803 6.1934546995762 7.2580377406759 9.1017240613999 9.9865510112681 7.9285145873255 6.4029429278658 6.0154513127457 9.0885904569864 6.9710255735528 9.3902594067978 4.5951780438413 13.298136916522 8.4434444271897 6.2404460366851 9.8382351289676 8.8399760124809 11.704517189069 10.597810059754 12.889272928298 11.978986757044 7.6722504891482 6.9319802762637 11.880016248478 8.3404242852805 12.141527789145 13.193673103164 11.14457337086 10.778588807938 9.8438119262602 7.4590802468521 10.75228585289 9.9259462137975 10.652460740089 10.41151676844 10.019780776037 5.9227398953478 9.7753396648339 8.1045173008434 10.477717082357 14.265052841256 7.2841082839657 10.00470792803 12.439740846424 11.572195361038 9.6836692984284 11.53978942257 8.1660358265134 8.6090533854864 8.904088321586 9.6706032622075 10.462435616716 10.912596873672 12.634928166801 10.2835233994 10.075758159406 9.784898463415 8.5050271041985 10.348662963909 6.8932195039508 5.9319931450484 9.6459726198307 7.686869029902 8.0092747952101 8.8277868070208 7.5029700671351 10.299802724526 9.3772663676427 7.5262557396348 8.9611568375314 14.953125617472 9.0031257503992 9.7656590199769 8.6343271245996 8.7339463151426 6.946198675964 11.337993044152 8.7123810304277 6.9020307017263 8.3216178315926 9.2369455901117 8.0661265374835 7.1514575686634 10.214916129404 11.018697916287 7.8826577297342 9.0564200838904 13.939117418853 9.8288009163354 6.4431135594367 10.83519163892 7.6649187944048 10.73965776554 11.46067081089 7.4178003812689 8.9624298094961 8.1320151635726 8.9000041546007 11.673506384122 17.264034439696 12.76705781256 8.4508473556541 6.2134812268287 8.1733846294909 7.3353819861318 11.221495181563 11.932549040442 7.3305703102182 10.921072358682 9.4544839422559 11.979423119576 11.109451013637 6.9650517369134 7.5429342483125 7.8201441844129 14.057460549747 9.5994922822884 7.2706159741413 14.772526776418 11.310334888466 7.4100342760942 5.5875088191806 8.19606845972 10.927598067315 10.56194946864 12.670081003056 10.171601735527 5.7207383253152 7.1453248574286 10.075647581433 10.766558323027 9.4842872159146 8.5734538977081 9.4073114224984 10.748452822312 11.615069702553 9.8385238539121 11.103416981225 6.5249939463217 6.4110054504269 10.725331820332 10.091972619664 10.970862068634 9.5311804075582 6.7872622167071 7.8401488737118 5.6127580769248 9.5708486034883 5.7536757446287 9.6901938291723 9.4651662201935 5.5096129195974 11.021458712541 9.1762586925049 8.7215106965091 10.78768149005 9.3374207523531 7.5899609074923 8.1638693746063 9.8365753879376 7.3016670287799 9.598991635228 9.0608103344602 9.6539727938823 11.41464339372 7.8699226231211 10.527613010102 8.5587384211726 7.0522028779029 7.2797258340747 7.2374771388309 4.9730390799834 7.8691710575904 5.5990516753766 9.166008999073 9.8349809970176 9.7642677922814 10.141443753462 10.160942657135 9.6831300493395 10.045945850905 10.473838605443 10.581616511259 8.4499192075115 10.166107242032 9.8383607042166 5.0800615301733 10.929793186114 10.777635697908 9.0290372994733 10.403075372369 9.2543917154724 6.8528722379241 8.8428129597474 8.5441379843909 7.2566491322006 6.8912446265898 10.335879046899 9.2749169413844 8.5460603152073 10.986946000577 6.1409179839021 8.9898739258756 8.857270024809 7.7689987946989 6.4932534955731 7.7129952931716 6.5932481488561 9.4602773669203 11.091294849047 6.213782111656 9.7648652588349 9.5356263781227 10.033537850299 7.1629327170254 9.0676579350751 8.9544862402117 10.95974103924 9.5251148716732 7.041089311528 12.765107696553 7.7780216677875 9.2011126903115 6.5174622716849 6.7305716799884 8.9267111392155 10.383023658946 8.8443505566933 7.9445052251254 12.656974302969 11.792572901427 7.0471511379641 8.0468252327105 9.8485969480566 8.6339316562576 7.7250516437416 9.6052497019616 13.778624346125 10.855627611817 6.5201418045564 11.440363552854 9.1589377786094 11.399527313897 10.708073154504 9.2509942850039 8.2990585791199 8.094316459467 7.5771721626186 11.235920366849 8.5081173377004 11.154817567089 7.9418286511814 9.8594589231452 11.947881480377 8.8893167653585 6.4510349642629 9.2505123442377 12.298516295639 10.593568981057 5.8882812448908 7.9970792441072 8.7180387845405 9.6805146903701 8.2787636233447 10.405133037856 9.5359760768107 9.738898510622 7.4737948085094 7.8385520959139 9.6592011327663 7.9746960839542 10.97529858477 7.6706681836637 7.1592411545402 10.117277684772 8.57009320647 10.145814811429 7.52614412474 7.1071691687289 8.7461307698571 8.8661621389941 12.146226457455 7.1618859210593 6.0920818553825 4.5812695488868 8.3131465197674 7.1374100932238 8.4289845989929 9.2442579400621 7.848454180952 9.3907888179033 8.7514520070368 9.8554834412508 8.0886960556965 10.844275125755 4.8107300426885 5.1994185055578 10.61645434136 10.575433037411 10.366799832999 9.4899016349312 9.9482985710792 10.840156358626 8.9735335785281 6.5591990546284 8.9049246507868 6.107515787899 8.2586022917091 5.3749441272748 6.2516100764445 5.8816200067627 5.9845135685072 7.3697847652015 7.4899893087708 9.4704664386284 6.7420153711259 5.0979332239864 7.4049197967614 8.4848383058727 10.182153228022 6.7288403114008 5.8859050909491 5.4055120048711 7.0308263591196 10.047880680339 9.4098428316728 6.9226700500816 6.795206516447 6.0048695071815 7.3889440314669 8.9539668251198 7.2535469710545 11.429365625172 10.308293660824 6.0508899067852 5.1643314805683 6.6933242114893 8.8780278212149 8.9885854940041 11.227170617243 11.442057165161 8.2449578556437 9.9225700068466 6.6331164947143 13.317521772053 8.2613954162443 7.6454812470641 5.6685649600945 9.0038595612224 7.5353437229049 8.8081886407843 6.8439614612673 8.7125323673265 8.4930959764523 9.0512811010966 10.809618817165 11.625223158749 9.9106614624332 6.9947217581388 5.7472247944076 11.136370814984 5.868353866799 9.9069200763292 11.130434427312 6.2068098377603 11.726893283391 7.9132609470917 6.9217602763332 7.3512205657277 9.3304267558794 7.3519894346863 6.3573340690302 7.024986765254 5.4246492804281 6.7359803086672 6.1714415030033 10.910350436389 8.9323263682501 6.5194728894491 7.153496384829 7.417829600977 6.1301109878627 6.7584504029546 8.1035689453385 6.9580495328779 7.3018809911159 10.992128609487 9.7201905155121 8.1192741112982 8.2422643955284 9.2666072638184 5.0505829424349 7.3610302898674 4.7770511983239 7.2022869290149 5.1859350550679 7.2550921024097 9.7365733369378 9.0562435582438 5.2320392455969 8.5253353307926 4.4793033109563 8.983509375956 6.7624269309197 7.4270662043866 9.5985317258388 10.632407034613 10.474386664113 6.7945099011686 5.3004478169533 4.2314437704425 6.5600515163573 9.6936085343393 7.9378434523965 7.8980083242904 7.3452510165311 8.866033331718 7.9787579826235 6.6487302308356 7.2219268199335 4.5575125435913 5.764137659258 6.2022041356928 5.1418481697074 4.8243656133258 5.2828143841898 9.1894563899316 6.4923838976114 4.6403561875557 4.1442297435163 9.7980538788304 7.5082334362514 6.7987827052645 6.4193742945372 5.4776360352791 6.3422645657148 5.2833405675342 5.3976077501206 10.837912584255 8.0203803763019 7.1328079346571 7.8560298537663 9.7101376110742 7.1787325585581 7.5927531859088 4.4967615422846 8.4221883066836 8.9280706865419 11.02412148573 6.5711634345652 5.635223254313 4.4874807549775 3.9219805174381 6.1511944779011 8.0958292491511 6.2905978259586 6.524845217121 5.1603026292392 6.0567208842824 7.9437562228931 10.162158357815 5.2162837362116 8.6746319871328 10.18099177231 4.0776733456942 8.1952359393141 12.358517027495 9.6573904904006 5.101330943666 8.0672564972274 7.1448480776123 6.0420364486663 5.6465088902224 4.831542857565 9.6079157298667 9.6028141059581 4.8272348541068 7.7435312107576 6.8879195734479 5.5668871524432 5.44676502988 4.540138150175 9.9501780235276 8.6675585532005 8.411686218927 6.2967543455454 8.2749666528208 7.6851115296503 7.9789264643074 6.1942408473358 8.1334561950394 9.3877447640165 8.7152987050571 4.7134609527283 3.7695333090825 6.8175096867171 5.5595056947328 7.4668930583807 8.3294479946279 4.969731462603 8.7228061143516 3.732676139332 5.5498833451594 3.6619802295757 4.1423402883428 8.3565413662289 5.0183367505379 8.5981693704035 5.3851809333467 8.0123510832244 7.4161441822212 5.8342201921592 7.5981323175705 5.0632880502509 5.824972444957 5.7695560118724 5.5194963569047 7.5712857861995 5.4353680298029 6.6129465471633 9.16009466819 5.1355153398743 4.5990262916704 6.6525937775987 6.3515077824494 10.591396658318 5.2192970282896 8.4224849106119 6.4711252134957 8.806879999322 9.2276609909699 5.2879399070857 3.8146397823309 7.6166406358875 6.6824602659103 6.1712033947218 6.36583545813 10.199680907744 7.3413338815078 5.0393336401129 6.9293076679268 9.8355671056252 7.5794403007432 8.1883794747615 7.1002917395405 7.7031854938091 6.5316755211849 3.8763089352108 7.7644939514228 4.1481709631917 7.2733303217335 6.8505814611357 7.8656619639772 5.9464521129168 6.8354654443458 6.8427661189692 6.8536479516987 6.5779067664587 5.5600441034593 4.4342045283385 3.7346985456765 4.6419048202413 6.4069665301844 8.505404823184 6.7476424883823 5.9248247055991 6.3149872128171 5.1063826492151 10.867848932312 4.8468002149138 10.379284408078 7.3440665463064 3.8157420467289 8.2838710925297 8.5869364369571 6.0561048247647 7.922522995545 6.5800456782409 5.3780509639801 5.523180008813 5.0068544013906 6.9035717564913 7.5222337441388 3.8564395099888 4.6801747430031 4.0314118245135 5.2072091058553 4.5715667597834 8.2704160085941 5.102576458095 7.8437318768332 4.4732470714196 4.6953774329413 4.8406904699674 6.948810373312 4.1058018908724 4.1645113058379 6.1289941949672 4.6690104039985 3.7726956170935 5.3675928323801 8.6943086265804 8.1938258330728 6.5596377800816 4.2462814986078 4.6913475587883 4.4024915512578 7.8225130741275 6.6827948344533 7.4327507047338 6.322047091553 9.1733655222938 8.4136761886823 4.9957983208471 8.6162004553382 5.2099854804795 8.3443822105606 5.5569808008049 7.7501978208663 8.8308819628998 6.6184112056855 7.9035307478005 7.4210378114039 7.869543018428 8.4506012566043 8.718346098616 7.0468086821218 8.0390997016671 3.9439367318473 5.0449439500833 7.8525094997483 4.2736485804618 9.2535899453255 6.5247377814628 5.7210038996195 5.8058667419362 5.8057914318194 4.9191508680809 4.65366810829 4.6306963215009 4.4719633994135 4.5627548347798 9.5133041757541 7.4841594388358 9.697703124327 10.032326257526 4.455667165941 3.7096588337297 4.9829554263051 5.1981506485757 5.5571992082291 5.0933929382786 5.3592137336037 4.8968074010129 5.6898863813716 5.7827004315771 5.7925481722256 5.5818123381797 5.8503147306688 6.2363924589607 5.3144621816224 5.027842069722 7.6892086715191 7.5121667127566 4.3108231754695 3.4952208378577 3.516974890764 4.080876956042 3.8216293148779 6.0070654321041 5.3095989180571 6.3228116487037 5.9282008790902 14.065809252104 11.899714928935 3.861611597422 4.3040955604091 7.1851457415803 5.0808218753771 3.6276491236302 3.7558393812469 4.7916158811656 6.6684506694159 9.4963129951279 6.0572165307924 6.9761879307255 4.7314910836951 4.9461028910787 9.03297646529 4.6377163315618 7.1838534245001 8.6732025224647 4.5119963873389 3.9672391477346 7.2466669368683 7.3456127394285 4.837051623694 4.3011733622221 4.2875897962563 5.8257780895013 3.8615195967964 4.7145739292605 3.5649377886173 3.5030948133571 3.8956098048067 8.521576299248 4.3385740172136 5.0754951832041 4.3543910335027 4.9787891042883 4.1444996389637 4.9986395900211 8.1838068575378 3.5587780577824 5.8388882866768 3.4962526186214 3.8736761781197 4.716226339336 4.0187601348722 3.7664253431703 3.689754100482 4.2043110353874 3.9750884155504 4.3230194163317 3.804797400654 6.8430940525256 4.6225924363829 3.646080027071 4.0119837982328 4.4465693033432 4.5159360933532 6.3491413477787 6.2951474998434 7.9809311914034 6.8726598564191 5.9760776008224 6.5476221473956 5.349642963675 6.0851304542256 7.2727237936724 6.7291530811281 5.2629499542124 5.668490919226 5.4021526378095 7.5076538327058 6.5512045755924 3.4841763353524 4.2504427860901 5.2882443304909 4.2645212752526 4.1158710728161 3.8231976207266 3.9448190964382 3.5564783235732 4.1206085654715 3.7968798604239 4.0563821760392 4.4560976353829 10.51458612332 4.1273977085346 4.766764072042 4.6778588789666 10.227347997848 6.8667188030249 3.7443246912701 3.755037646801 3.4337142788669 4.2189744749242 4.5317977810634 14.560714432073 3.6761363389003 3.9627454731853 4.1004514894981 3.485628910036 4.3830573955595 5.0001408526811 4.6688474749531 4.4856348889427 3.7719280361236 4.5998741431115 3.9462779648401 3.561173381861 4.302486813847 3.5009320518935 3.6400951919681 4.2383904556342 4.1353168813396 3.4104254423455 3.629720474773 3.3749425807014 3.5074714177887 3.4109168148237 3.4175662582449 3.5756087689934 4.221036808068 4.1707312416111 4.9460080213313 5.1510879180057 3.7297765807581 3.5477745616777 3.4637162823474 4.1179850807283 3.6077422615598 3.5334524973171 3.5638155500726 3.5661979298415 3.5439891672342 3.6569032340043 3.4761219944597 4.151868709501 3.3100793589405 3.5157857693398 4.0258379278596 3.9548156542958 3.4631245370706 3.4528247459731 3.5498658451304 3.6452482257957 3.3950894552569 3.3823767310187 3.4640062352805 3.4991356020866 3.439240016727 3.522550962405 3.8172336356807 3.6039802526922 3.6911257998145 3.4567626944765 4.1519776316366 3.4325835026921 3.6215176836756 3.3710407323947 3.422678540064 3.5044718095634 3.4315238211331 3.5979122638002 3.5278631031779 3.510909560618 4.0427480705221 3.5179967382885 3.8608407679422 3.3790877905184 3.4632897423192 3.6419676751274 4.2277796920567 3.6323684035576 3.578518166337 3.3557420698196 4.2428362944561 3.7539745553971 4.3718203796077 3.7532881800801 3.4704456313033 3.6637268325778 3.6124178626095 3.4381418196747 3.7860552344812 3.8435332724078 3.6639258480711 3.7971691217017 3.7784797583913 3.6781795897922 3.9318164708149 3.4202890434886 3.7828654835205 4.4530595588913 4.0706593321623 3.96269067394 3.6574020987695 4.0853170862499 3.3928571824449 3.8118982034541 3.6166507254602 4.1016524011091 3.7829706129795 3.9818054586906 4.1634659473217 3.7749509673577 4.1287661690937 3.8190982581657 3.8953480905006 3.9805349991001 4.0784683890789 4.1652066009712 4.0030197532786 4.2754754087937 3.701796388799 3.7105157109462 3.577238015746 3.6515450935439 3.8146310903129 4.1099936593363 4.195742040567 4.0838204896614 3.7806515187421 4.0689249992751 4.1791114267808 4.2288944525053 4.5490230753682 4.2916104072963 3.7790256185204 3.816250796818 3.6791587675684 3.8960612772443 3.9553275634791 3.5096825533464 3.8911131880382 4.0474790494364 3.6514940397479 3.8135085703202 3.650424356983 3.9622986825677 3.9829690814109 4.0976904150435 3.9725928178191 4.3482139513933 4.2351807802029 4.1402592732626 4.1040675210059 4.0747900296801 4.213762702899 4.2191426374437 4.2343208562805 4.2109014207299 4.0913583035211 3.7820698912036 4.4704870667045 4.2087844603732 3.9956026948128 4.1208578679887 4.2537945226531 4.2544237517044 3.9766933131727 4.1207519254932 4.36156605085 4.4048884898289 4.4902177117689 4.4929265576644 4.3279287756103 4.5436863870144 4.5077512568328 
SCALARS 20.00_0.14 double 1
LOOKUP_TABLE default