# vtk DataFile Version 3.0
d-2__ created by libgimli-v1.0.12
ASCII
DATASET UNSTRUCTURED_GRID
POINTS 1303 double
5.625	0	0
5.511811217919	-0.146388704457	0
5.676386535709	-0.13519637448	0
0.25	0	0
0.175228502521	-0.179050409113	0
0.326009290428	-0.144330725415	0
0.375	0	0
0.990207725992	-0.114957291708	0
0.841075314552	-0.137634199948	0
0.926498288371	-0.349340723189	0
-0.001071200562	-0.386156929004	0
-0.003317641763	-0.130454088023	0
-0.192720422374	-0.216308252768	0
1.25	0	0
1.175215748534	-0.200562384647	0
1.341115762259	-0.128605193971	0
1.375	0	0
2.25	0	0
2.168494514827	-0.19848886597	0
2.338304607341	-0.128945294536	0
2.375	0	0
1.911268305082	-0.334701951691	0
1.986191885908	-0.110806668109	0
1.838390258011	-0.128853462534	0
1.75	0	0
1.670105949089	-0.197137117999	0
2.986685504441	-0.10889534818	0
2.838723720416	-0.127406828384	0
2.912854264006	-0.329775839393	0
0.75	0	0
0.664572693147	-0.222613872306	0
3.25	0	0
3.168798596028	-0.193682232199	0
3.337828500197	-0.125181208794	0
2.875	0	0
2.75	0	0
4.25	0	0
4.161099470995	-0.193412132741	0
4.332718836325	-0.127723897736	0
3.83511440706	-0.12403687807	0
3.875	0	0
3.75	0	0
3.901908238995	-0.321557035295	0
3.983050435256	-0.106770030737	0
3.665527023987	-0.190866765849	0
5.25	0	0
5.164693411436	-0.21656556845	0
5.338419985376	-0.147288917438	0
4.834321952324	-0.135810575609	0
4.875	0	0
4.75	0	0
6.25	0	0
6.178399669611	-0.137425451145	0
6.356205370496	-0.193853696818	0
5.817814980918	-0.161175429964	0
5.875	0	0
5.75	0	0
6.611939839541	-0.314381537706	0
6.522886280605	-0.104721203126	0
6.75	0	0
6.669178832877	-0.119404962711	0
6.836073690852	-0.177498311423	0
5.39059629209	-0.37339102075	0
4.660917359886	-0.204007052252	0
4.902096977384	-0.356327271651	0
14.897042426984	-0.319128540459	0
14.98121339776	-0.105010975498	0
14.832720105416	-0.123004000492	0
2.669265824618	-0.196872625129	0
7.656019919505	-0.144451020927	0
7.75	0	0
7.625	0	0
6.625	0	0
8.75	0	0
8.672937461928	-0.164309120831	0
8.834289374889	-0.109279841483	0
8.206809119751	-0.294811800109	0
8.187056112549	-0.110869448227	0
8.024316200302	-0.129362764133	0
7.157390904024	-0.111206354394	0
7.25	0	0
7.125	0	0
8.25	0	0
8.125	0	0
9.75	0	0
9.651145885459	-0.185384966231	0
9.827054067621	-0.122428024454	0
9.381816956327	-0.305807769915	0
9.476753337472	-0.101567493772	0
9.327490061855	-0.116748040282	0
10.75	0	0
10.655660803951	-0.196164841752	0
10.830485405183	-0.127989131147	0
10.386748323888	-0.329675548046	0
10.478464938155	-0.108955040137	0
10.328560245085	-0.126395562242	0
9.25	0	0
9.375	0	0
10.25	0	0
10.15270392044	-0.192469144253	0
8.328856990144	-0.128933011689	0
8.375	0	0
9.153857570119	-0.175508527296	0
11.75	0	0
11.660624577581	-0.201812344528	0
11.833823570609	-0.131890823957	0
11.395399221028	-0.337817920558	0
11.481219500696	-0.111845889235	0
11.331881500183	-0.129806070652	0
12.75	0	0
12.669299873111	-0.199190799603	0
12.839534650452	-0.128328673855	0
12.40897914742	-0.340185307353	0
12.485654611126	-0.112072117633	0
12.336727606385	-0.131188239877	0
11.875	0	0
12.25	0	0
12.164627546098	-0.202605127067	0
13.75	0	0
13.669268468008	-0.186168180444	0
13.837322273199	-0.120178339978	0
13.416957459915	-0.319650485848	0
13.487510959619	-0.105281058988	0
13.34010202956	-0.123833443479	0
14.75	0	0
14.66080663422	-0.189613659871	0
14.399926333663	-0.319306441484	0
14.4823067449	-0.105599641009	0
14.334114343934	-0.12250571155	0
14.875	0	0
15.25	0	0
15.158227025815	-0.185762723401	0
15.330441202311	-0.11956675178	0
13.875	0	0
14.25	0	0
14.163960939829	-0.186365139356	0
12.875	0	0
13.25	0	0
13.171786689458	-0.193064330135	0
10.875	0	0
11.25	0	0
11.158129238503	-0.198418008741	0
7.31587636932	-0.171642077952	0
15.3902841013	-0.308450173235	0
15.478958243586	-0.102394874489	0
-0.125	0	0
0.125	0	0
0	0	0
-1	0	0
-0.706889652808	-0.331752981492	0
-0.5	0	0
1.125	0	0
1	0	0
1.625	0	0
2.125	0	0
2	0	0
1.5	0	0
1.488007132967	-0.109900770852	0
0.5	0	0
0.474245721096	-0.130043839003	0
0.625	0	0
3.125	0	0
3	0	0
3.625	0	0
4.125	0	0
4	0	0
3.5	0	0
3.485533411273	-0.107014956798	0
5.67736414417	-0.368119689468	0
5.125	0	0
5	0	0
4.98353533542	-0.118243061674	0
6.125	0	0
6	0	0
6.009467825362	-0.139471566496	0
6.5	0	0
4.625	0	0
5.5	0	0
4.5	0	0
4.481603306259	-0.111052305129	0
2.5	0	0
2.486482293556	-0.110456056597	0
2.625	0	0
7.828740664136	-0.157959666613	0
7.5	0	0
7.497789303332	-0.098817221798	0
8.625	0	0
8.5	0	0
8.493725508365	-0.094448160765	0
8	0	0
10.625	0	0
9.625	0	0
9.5	0	0
9.125	0	0
10.5	0	0
10	0	0
9.976983002093	-0.106037154081	0
10.125	0	0
9	0	0
8.980258705317	-0.095443922293	0
12.625	0	0
11.625	0	0
11.5	0	0
13.625	0	0
12.5	0	0
12	0	0
11.983083448534	-0.113269018621	0
12.125	0	0
15.125	0	0
13.5	0	0
13.125	0	0
14.625	0	0
14.5	0	0
15	0	0
11.125	0	0
14	0	0
13.984735949845	-0.103165953766	0
14.125	0	0
13	0	0
12.987740386932	-0.109238757727	0
11	0	0
10.980033547654	-0.110118532971	0
7	0	0
7.012790729926	-0.096165366155	0
15.625	0	0
15.653391866104	-0.184257106926	0
15.75	0	0
16.25	0	0
16.151956269841	-0.190746813766	0
16.328162175541	-0.125534698515	0
15.827345422636	-0.12109528269	0
15.881623705918	-0.315197408181	0
15.9768075603	-0.104841845177	0
17.25	0	0
17.155473725888	-0.187015736188	0
17.328334720487	-0.12053442359	0
17.375	0	0
16.97978281674	-0.105790715925	0
16.830585534618	-0.124270763258	0
16.892220832712	-0.321708894118	0
16.75	0	0
16.655725821363	-0.19281499559	0
18.25	0	0
18.144056513649	-0.199584109463	0
18.322695877645	-0.133173012767	0
18.375	0	0
19.25	0	0
19.156955168382	-0.212194778097	0
19.332395147696	-0.137501625504	0
19.375	0	0
18.978107771567	-0.118463258117	0
18.827251646435	-0.137822523984	0
18.884674261801	-0.359498065923	0
18.75	0	0
18.648603260315	-0.210400354993	0
17.973004229039	-0.108213471414	0
17.823362138939	-0.124125311933	0
17.87020700187	-0.324156104502	0
17.75	0	0
17.64837652944	-0.187413016584	0
20.25	0	0
20.167288289523	-0.206556633625	0
20.33799343326	-0.133667464393	0
20.375	0	0
21.25	0	0
21.172020853715	-0.201327641466	0
21.340729826518	-0.130206344264	0
20.875	0	0
20.75	0	0
20.839555732676	-0.132066213667	0
20.987710400762	-0.112937783384	0
20.915843633601	-0.342386775443	0
20.669904108595	-0.203936882105	0
22.25	0	0
22.168893714495	-0.194483818359	0
22.337089427477	-0.126591453251	0
21.875	0	0
21.75	0	0
21.840184239699	-0.127666317168	0
23.25	0	0
23.162361450448	-0.215073727418	0
23.335945395372	-0.148199257458	0
22.875	0	0
22.75	0	0
22.83504078106	-0.133126573368	0
27.412614995451	-0.337768305098	0
27.406417478875	-0.760610856776	0
27.663031754041	-0.476449210851	0
23.674319496044	-0.139602731619	0
23.75	0	0
23.625	0	0
22.902876337082	-0.348446434986	0
22.664415839639	-0.19979598046	0
21.987454968006	-0.109075483352	0
21.916658702332	-0.330379709848	0
21.67241042914	-0.19774510361	0
19.984830323221	-0.115851903278	0
19.835879034474	-0.135573032779	0
19.906686139011	-0.351521653308	0
19.75	0	0
19.663378765328	-0.209646647928	0
24.75	0	0
24.672305039303	-0.121865624882	0
24.84054616259	-0.178479133746	0
24.25	0	0
24.125	0	0
24.179559510218	-0.145425217914	0
25.656694723316	-0.141492417978	0
25.75	0	0
25.625	0	0
25.25	0	0
25.125	0	0
25.159224348757	-0.109007087058	0
22.647257188685	-0.476376729768	0
22.872248033711	-0.780455516934	0
25.317652966423	-0.167196322239	0
31.908525182248	-0.237434634112	0
32.248547795208	-0.367887731521	0
32.025	0	0
26.398062594932	-0.327144710524	0
26.335089901602	-0.124890632532	0
26.169730315141	-0.188549564961	0
26.75	0	0
26.662500836065	-0.197477656933	0
26.835401004001	-0.129534360312	0
26.375	0	0
26.25	0	0
27.486869476066	-0.111474770432	0
27.338367230812	-0.130187170762	0
23.816158307302	-0.168335740772	0
23.875	0	0
24.625	0	0
27.75	0	0
27.67023663024	-0.198727549038	0
27.839431305592	-0.128541986375	0
27.375	0	0
27.25	0	0
28.75	0	0
28.666013303123	-0.192953151514	0
28.835335299513	-0.125393524551	0
28.875	0	0
28.41074998604	-0.32692743598	0
28.485854239984	-0.108071323096	0
28.338261561589	-0.126341817439	0
28.25	0	0
28.169650699531	-0.195402875109	0
29.75	0	0
29.656991685033	-0.201213204108	0
29.830700495316	-0.13323291855	0
29.875	0	0
30.75	0	0
30.665605116896	-0.213760177502	0
30.837855425721	-0.139272404211	0
30.875	0	0
30.987248292653	-0.119871959545	0
30.911614165903	-0.362389547989	0
31.25	0	0
31.174363802618	-0.217041176186	0
31.346460135447	-0.143418487957	0
30.400599561582	-0.360265197586	0
30.483280501431	-0.118794220148	0
30.3336351656	-0.137924489201	0
30.25	0	0
30.159375273254	-0.21004086356	0
29.392934647931	-0.331414044449	0
29.48031118177	-0.110263057575	0
29.331777210358	-0.127344913482	0
29.25	0	0
29.160548153072	-0.194064979946	0
27.167334579456	-0.200440763045	0
24.359650796728	-0.20304719459	0
-0.25	0	0
-0.404335947278	-0.221464959739	0
16.125	0	0
16	0	0
17.125	0	0
17	0	0
16.5	0	0
16.478267427857	-0.108008273171	0
16.625	0	0
18.125	0	0
18	0	0
19.125	0	0
19	0	0
18.5	0	0
18.473681471998	-0.115768873419	0
18.625	0	0
17.5	0	0
17.47687846862	-0.103462148239	0
17.625	0	0
20.125	0	0
20	0	0
21.125	0	0
21	0	0
20.5	0	0
20.486446843971	-0.114298370976	0
20.625	0	0
22.125	0	0
22	0	0
23.125	0	0
23	0	0
22.983281399654	-0.116385827149	0
23.5	0	0
23.509214189908	-0.149359691049	0
22.625	0	0
22.5	0	0
22.48467632496	-0.1093719097	0
21.5	0	0
21.488472844532	-0.111208801785	0
21.625	0	0
19.5	0	0
19.482219828947	-0.117572233456	0
19.625	0	0
24.5	0	0
24.525433875838	-0.108080714825	0
25.824234283709	-0.149177038136	0
25.5	0	0
25.498573523516	-0.096586408813	0
25	0	0
25.014769107289	-0.095147895568	0
21.919931345447	-0.741308582321	0
22.160361550711	-0.463896476278	0
26.625	0	0
26.5	0	0
26.482631880244	-0.108512805864	0
27.625	0	0
27.5	0	0
27	0	0
26.984612185119	-0.111680714924	0
27.125	0	0
26.125	0	0
26	0	0
25.990349817319	-0.10847866492	0
28.125	0	0
28.625	0	0
28.5	0	0
30.625	0	0
29.625	0	0
29.5	0	0
29	0	0
28.983089608831	-0.107750428826	0
29.125	0	0
30.125	0	0
30.5	0	0
31.63125	0	0
31.5	0	0
31.494696987447	-0.123712578064	0
23.671261205816	-0.380102168636	0
31	0	0
31.125	0	0
30	0	0
29.980228243528	-0.115525062547	0
28	0	0
[...]
CELL_DATA 2263
SCALARS 1000.00_1.27 double 1
LOOKUP_TABLE default
9.4279946425375 7.9091377368767 8.0058026052939 8.9182097555304 7.7074444515154 9.1592425172344 9.1930677799711 9.4444947279206 9.4500334178465 9.6878044929846 10.005257293418 8.9634700577037 8.7726088544352 8.5007599834531 9.2273250483543 8.8362242904486 8.6547806882923 8.6345857023317 8.6136257771488 9.1844281452796 9.2991520910933 8.9550368740296 9.4602034666037 8.9683597996099 8.9478790249116 9.1403170169871 9.4299477617646 9.0051054316447 9.2343691559448 10.656326048501 9.2214789650289 10.204626206356 8.9095156043771 10.105737901634 10.027737578265 9.6155969779464 10.059416272718 9.9480569492894 9.6250166039759 11.202117366697 10.79858215817 9.4900807211255 10.854140468764 10.099049028552 9.5127122490097 10.223796773609 10.52967183863 9.9275468761042 9.7825046695594 10.198297597019 9.7507674432225 10.489147460761 10.487324178871 10.866314473908 10.831541729775 10.881847338954 10.235278227808 10.503565728416 10.967725092037 9.9850649429901 10.454809491843 11.275454229781 10.66470308108 9.6499312573296 10.370007951448 7.7664141158034 7.7445696453519 6.8513271009933 9.1576646311117 9.1434771800388 10.078602212032 9.7874511948655 9.8423741039607 9.5428209606238 8.5566373277204 7.7762892333486 8.5585595050585 8.875999473322 8.6228000159187 8.8236494625228 8.6549977904302 8.8241328024206 9.2859754853698 9.2713478084978 9.4234221229487 9.215610226943 8.9809944958465 9.2448833201267 9.4678502164282 9.278327001593 9.1880795029228 9.1763806779052 9.4393989995499 8.7178255694428 10.191418212795 10.140160163079 10.060475049127 10.271189230458 10.196856815409 10.170454860211 11.233638904333 9.8752913960542 9.5857751140331 11.202001191489 10.550608312799 10.821877565869 9.8821308752282 9.9558065332577 9.9188720081834 10.62412808058 10.536610079193 9.9536734554762 10.041002052623 9.801326170126 10.28481776685 10.670258625244 10.432951555527 11.055961194146 10.593910866207 10.754951935243 10.919025548792 11.012566480061 10.347576679182 10.945320519252 11.059697565945 10.35117155803 9.5168925430676 9.3096576813117 10.90328526399 10.893378679495 10.733724865794 10.000241597008 9.9839885815004 10.814749952372 11.168517821313 9.450727649991 9.437342348171 10.127824822606 10.224288426113 9.5244790512432 9.4334477034357 9.7246220882611 9.81972183237 11.119085882205 11.201225640994 9.3888416830341 9.9955766418722 9.8654715458224 10.00883564283 10.034427960967 9.5254489622514 9.7472327571351 9.4613553647686 7.7240808198185 8.7955366322239 9.3178533026719 9.4504945923612 9.5947432103354 9.494956429895 10.436112466209 10.37572097525 8.8423883838039 8.5672139675878 9.6347993901617 9.4081518691416 8.1527852099856 9.3826006039361 6.1630464849094 8.8545332216004 8.4351056548619 9.0918635646351 8.6292946607984 8.7477079524623 8.832962328554 9.1128274940774 8.8381976207046 8.6721980551682 9.6903493547148 9.7284959633176 9.4944328467674 9.4802060290991 9.1476633409161 9.1327009463871 7.6106236564769 7.4960252766466 7.4943703586255 7.1083240332683 8.2388865071881 8.3641277451947 9.4019389786634 9.5758070610204 8.6257882396998 8.5738992874254 7.4193140339394 10.989590704311 10.942723288693 10.600316180113 11.15851119841 10.861130042799 11.212283199254 9.7461896364905 10.110337492251 9.9448575156223 9.5463444596217 9.5356405171488 10.067180160212 10.092218167602 9.9072788230336 11.010984033437 9.4569141657658 9.7992786139751 10.639300070873 11.167516644207 10.099599935983 10.006848391976 8.7583773061974 9.8318831865737 9.172360815143 9.5294005525911 9.8366034328157 9.8555387438313 9.6064751114583 10.12335392878 10.408706552505 9.4580130651266 10.368205283168 8.8780183698744 9.5164117408207 9.6945593971169 9.373775226735 8.4311310725948 8.503379066728 8.7881816878226 8.8103284824101 8.8106464535434 8.6264261007082 9.2331256871936 9.4081423921285 9.4370465857738 9.7391785628771 7.765307529087 9.4347961018118 9.7621737429454 9.2378802183715 8.472166303067 8.1152755494048 8.632541893361 6.7092440879864 8.7680850242899 7.5128563909779 9.648366966381 8.8074838869945 7.2979869066733 9.2853552770252 9.7141506937045 8.7248227385001 9.5246589877229 6.8146112854674 10.758937207752 7.7533344785591 9.1952800681584 8.3562946353904 9.1608729452564 9.4971323817128 9.6166249511368 9.467780975974 9.9571061271222 9.9304351544807 8.6637243856849 9.0302426595505 8.6876288877295 8.6140044381675 8.8100377681007 9.0898150978224 8.6331365185035 8.7862450667757 9.1841845665699 9.4645412170736 8.5170593838531 9.0411969040664 7.765656431689 9.3553044037704 9.0202324195396 9.4159324686598 9.1950042622387 9.3563894664576 9.3410917477074 9.1045780099137 10.313011498752 10.223975500781 10.031474837746 10.013406686113 10.241155470089 9.9400908991797 10.255051460976 11.169368826461 11.262336796019 10.673335995757 11.143918320067 9.734685900369 9.6743498407494 10.473538168757 10.156863300904 9.9324859035136 10.217713911828 9.9044055817154 9.9081065957804 10.600411021845 10.712464693135 10.966551675271 10.80128011439 10.416417438112 10.49768918577 10.958761151969 11.070755821239 10.382375364542 10.668936544509 10.864331757049 10.702356541248 10.121952158187 10.013094626097 7.2411183066613 10.842641814563 10.958061742645 10.929105476719 11.087381949066 10.297289851708 10.067993656685 11.131224567345 11.039385568016 9.6406982838171 9.5187751637793 10.013331464019 10.4003170012 9.5027239745627 9.7251782118671 9.9963801883152 9.8084399056938 11.042922473889 11.034994102576 9.6248868009129 9.5264555942159 10.325688308528 9.9711827951934 10.04893847746 10.006780228566 9.823970271124 9.5474468064598 8.9014739423839 8.8055593594428 9.6524138795145 9.6593018039126 9.5760884093894 9.7831948450703 10.350625644733 10.797627150308 9.6644709617039 9.1909533528369 9.449730912172 9.4279868673242 8.8335642348167 9.5607130021208 8.6187126832981 8.5546828077172 9.29082276656 8.9678356455221 8.7915327603284 9.1464610651818 9.7022916671737 9.784149454388 9.3418862899327 9.7200928155444 9.3113958694765 9.0138982193482 7.9654083547276 7.4367593323155 7.4314974033906 6.777391396063 8.6319697051256 8.2206596339892 9.6816312776182 9.5384008884079 8.6204949123866 8.7890256207255 8.8100420473692 8.8146533293187 6.3655068489566 7.6188886981191 6.4872631350654 7.8581188410352 6.5982746262504 8.7342409572322 8.8287710662907 8.8451458926109 10.030690931052 8.5050115384235 8.9977011069697 9.3183169990431 8.4576150439774 8.2425793311373 8.2581176403356 8.8979947547856 8.2702692114614 9.2689954717894 8.7236035099725 8.5144385152877 9.3113106295183 8.9721762156044 9.0172560505452 8.0303443117695 9.0204282122506 10.261067743564 9.1249169849651 6.2764517432854 8.6363751756481 8.8834620632264 9.4654459230709 9.2710105361383 9.964278896312 10.092860784937 10.121111972029 9.984089425013 9.3202130822696 9.4982314662224 9.4356872615639 10.102526548752 10.96132417438 9.7276918330355 9.7362746148528 10.058014826982 9.9516102397206 9.9827286439627 10.672264019035 9.4012481507627 9.7674715219444 9.99921216359 10.366051520542 10.038363549784 10.525950338192 10.136312924608 11.011445260096 10.243231200486 10.734041299674 10.892862713176 10.462539961029 10.546638490769 9.7842121855198 10.043842380037 10.778382445219 10.978296182066 8.9693917720529 9.8125041872742 9.9783224633749 10.949457684701 10.505519058355 10.740294905818 11.236025842388 9.1499797588537 10.653491966147 10.787644356489 9.8019602344447 9.1154848341529 9.466923363112 9.7377335605647 9.6030098448282 9.4144519579285 10.436292663341 9.9978126872693 10.472485689826 9.3776099118078 9.1509952545653 10.062476050027 10.499166155993 10.721108846095 9.1473638858741 9.7665501028345 9.2239946859045 8.7539714130146 9.4475470653588 9.381496525594 9.680329428102 9.7988311366323 9.6704971466696 9.4456169848308 9.6246480975887 10.086331228215 9.4514985419771 9.4845308807396 8.5458471292625 8.4369838557874 8.6183573936348 8.1174746682 8.6431692489919 8.9112120278161 8.9227017565547 9.297961989388 8.2883274610228 9.0424886633803 9.5703396237143 8.7949543432989 8.6267792292461 8.9519111736419 9.5804749899264 7.7698079653076 8.304888731912 6.984885066054 8.0776476499508 6.2604781788852 9.2439244018666 8.9398213495428 9.484673709558 9.607366281008 8.8463459365256 8.3513529502363 9.3309782209716 8.5985724271785 7.0537011123213 7.0573924338892 7.1165772718829 6.6465083066064 8.0453875420657 8.17664516914 9.1379084969243 9.2924754855491 9.2089397510432 9.4333973749331 9.6379924633136 9.9541868256445 8.7612593564534 8.9141921419805 8.4375628548188 8.5467247991329 8.731358045133 8.9648293185891 8.5199995558741 8.7014847481525 7.7295410730321 9.3342753535805 9.1785566899879 8.9824193375869 7.2409812442511 9.0348243618993 8.9150973039479 9.4450240130625 8.4405585179686 9.3085798761203 8.9525212678777 9.1686027764652 9.5817804587832 10.273588228079 9.9468464534258 10.072165837258 9.0295617528738 10.162676661781 9.8807502403639 10.071278486389 10.860084575364 11.252758562715 10.588551469718 11.005625308087 9.5366672346625 9.561680898858 10.012171110441 10.17186341296 9.8649855243644 10.073441212138 9.669943852875 9.8230318316922 10.402900111178 10.569127678891 10.606727701625 10.841677807081 10.227424140738 10.336038451337 10.712718056522 11.00988999411 10.325026687299 10.582417567068 10.457461933594 10.67702531396 9.1781944978711 9.7420629749902 10.62862341615 10.89087557439 10.637482354954 10.971813339904 9.9463584543265 10.023347567264 10.769524053458 11.149754412746 9.3518513678421 9.4647097666911 9.8855579877159 10.277141259596 9.3542129369553 9.5584367511199 9.697474383154 9.8004302013605 10.637190942346 11.11744346393 9.3543470323384 9.4416248491155 9.8281985029587 9.9934500537302 9.7315713358472 10.022702128263 8.8858424015061 9.6641366917582 7.5536803272751 8.7804456585352 8.9643334495909 9.5217271405156 9.4258992996679 9.6131623569347 10.180823664712 10.576940362472 7.634497579853 8.9036511039079 8.8045954650397 9.4189821494316 8.3417796098366 9.4030674485808 8.619712718293 8.4762111995069 8.397509650076 9.0249213321005 8.7681805590616 8.9962655832238 9.5134723785329 9.7382671488296 9.3276171628259 9.6205751662288 8.9629871253403 9.0809820404674 7.5755993598533 7.4640825024535 6.9466519078764 6.8800425909875 8.2922938005142 8.2770243747496 9.3735700169369 9.5494676742762 8.5061236210012 8.7115769469485 8.1450320434094 8.6267697663638 7.2683437517672 9.4878967603185 8.3647705825294 9.1437236453485 8.7694851264788 8.5024747266017 8.3494826547687 9.0266800820529 8.0976374610531 8.2820535034037 8.52450933221 8.9118026688553 8.2978115317939 8.371885022096 8.1853677447242 8.1638101693514 9.7907381453099 9.4453944903847 8.9111522072591 9.523498502691 8.5525032867856 9.8601542778939 8.375341350001 9.8763226956748 10.026478066951 9.83926050113 8.0978811004508 8.5847501789716 8.9143109148816 9.9900693212302 10.168984865915 10.219801489992 8.666353877668 9.7308916857546 9.3826410007832 10.750989304764 10.136434056137 9.867782528113 9.4658283190082 9.7576076267717 8.50144494892 7.8090831465448 8.8751449643744 10.123557426794 9.4357329512428 10.618947748177 8.7436720456412 9.3721166581918 9.3980108258775 10.449296768662 9.3960275070735 10.076650591607 9.9333891861504 10.050211977222 9.4239787819815 10.121894773722 8.9084287985128 9.7306255201507 9.2677840056767 10.043640212065 9.0796516364238 9.3894756313992 9.3927781806958 9.8288622355785 9.3831226064805 9.9355068586918 9.7096455562778 9.3702219940188 9.2497977235316 10.071286943549 8.4235884366594 10.04586913326 9.1878123276163 10.338985076788 8.2906009060238 8.9298555135025 9.08553032987 9.507378552959 8.8052099640073 9.4417105084527 9.0679239513483 9.5824571478613 8.6231240193149 9.543961879147 9.2773181817961 7.8109724637096 8.8682567099477 5.951306548008 7.810633761166 7.6904368300754 7.119053976708 8.544466697399 7.8629397297692 9.0186586556955 8.4518367967897 9.4084611605142 7.0837687450654 9.0740026986349 9.120793134959 8.4372637719543 8.9671358313915 8.7030422507379 9.2674228784353 9.0488703772726 9.0213692361809 8.4695398970036 8.1109704015047 9.5242321838127 9.0662372936426 8.7212467351022 8.3483002517485 8.7060522951075 8.1727961682676 7.4063033319838 7.23674615647 6.6535257819084 6.6780230425318 6.181176309744 7.7611273414247 8.3413223798713 8.5075764709593 9.0557164332971 8.4946617620992 9.207207966396 7.690843671864 8.0929387685694 6.6886541850907 7.2217712135943 8.9447899037566 7.7767683089815 7.3257198323843 7.8847708248953 7.4141336953992 7.8304245507977 6.4546011947035 6.9578041703508 6.2353548491769 6.3220381969141 6.0500636485852 9.0452635136919 7.2333170877374 8.7794247188272 8.2647859465042 8.3989931854009 8.2166011359157 7.4209959474621 7.8947204266012 8.1677476111815 9.82037624367 7.6972935278722 7.6887474936773 8.5051824815102 8.2461143576349 9.2883568519342 8.4363349210639 7.9233509370345 10.100398316518 5.7483438765904 8.9727973092628 7.7011584662544 8.4649606210984 7.8787941571572 7.7942171296562 7.6360616051969 8.0235481234937 8.9400375854269 9.1214022429907 8.706871013554 7.2510415233377 9.8587436654855 9.0697017667556 9.4727998506649 9.2091071740424 9.8267580758883 8.9685753912093 9.4545925188376 9.0032204641054 9.323080298515 8.7361868892939 9.623716611091 8.7775719893019 10.111160076853 10.094458704431 10.140123063688 9.386726814595 9.9974637280955 9.4338558059028 9.8021309037711 9.2174746140979 8.2345741397296 8.7970457037898 9.9698418449235 9.1425013104287 8.5024126234467 8.1472835735318 5.431559935159 8.0530407686365 7.1555180957939 9.09439086578 8.7879454546087 10.034958526529 9.4309054226124 9.2423171192157 10.0824147617 8.6800834624843 9.3503766204982 9.2518628130854 8.9178127695463 8.7469675517666 9.0578603571331 8.3477926848788 9.4194210928932 8.7910658690745 8.5447738608164 7.685144136 9.4233519831115 8.5905907548056 9.7763493323245 8.5502807176154 8.6647756412968 8.2099366915935 9.15078999606 8.4242873994394 8.4143669386997 9.1054165282438 9.0080866428885 7.7888235004736 6.3556585760628 8.0942797936193 9.4585995470646 8.6614694216183 7.7260776379253 7.9729215021489 8.0644566698683 9.4591347008582 8.7386520751716 6.2063043542823 8.3346284529019 8.3060235762686 6.3663532320606 8.071222875875 8.8012690427904 6.4485332833163 8.0852767966769 8.4050275209988 7.6069915217611 6.4425489904278 8.2089327101963 7.6052576300524 8.7074444431553 8.0506117532888 9.01566656103 8.4508475353083 7.956782120619 7.5466588743137 8.4418258659545 8.8604297474153 9.4062988524658 8.0628129168064 7.6326522422532 6.8337109894338 8.7860863288997 6.0380423904283 8.4092176643669 9.0025409146084 7.6597646443592 6.7398800306734 7.5499331905985 5.5300193335251 5.9627504756869 8.777335353608 7.1454414651496 9.0410090720617 7.2111948482562 6.8056496539112 7.0724735346079 9.0551233710183 8.1695154703049 8.6505589853213 9.1401759211758 8.3320803247832 7.259202179437 9.2026900897833 7.4314833173465 5.8967932206814 6.5895055553296 6.744536731409 8.0918304483185 6.6924613646204 8.9226148180578 9.0038895469651 8.8590288070813 8.9070009044141 9.2435689891796 8.0247146352762 6.1424934863944 7.8046836104475 8.8007616859303 5.929366409844 9.4218813209664 8.7988351002877 7.3044700695785 9.3027966679982 6.8072878610074 8.74904962047 6.3443422504936 9.0090308487896 6.8019014569065 8.4817148577698 6.1016001306573 8.3071931005954 6.3075905441815 9.2578247016081 5.4097639655067 8.4896990120387 8.4354595481764 5.8391703311144 3.9014255064222 6.8225909874845 7.9039316589026 7.4005804520042 6.8079765481599 8.5110805519023 7.3444487182151 9.2033424394229 7.028373990712 6.6030586253469 8.5941980706963 7.0058591367131 8.3601589786021 6.3804277127923 7.1065393242182 7.9709821002233 6.5816909883405 9.0202956187376 6.8925923690258 8.365305822814 8.7509574188156 7.3402045740454 6.4656912448059 7.6368627978941 5.6251757822409 8.4031278093 8.345081446417 7.6232233982452 8.6070243626234 8.441447435044 5.0366210324524 8.3053699645261 6.258885632848 8.0232380127568 6.2271028588183 8.5240686183486 6.2216317871927 7.8598603564377 8.0789731593092 6.3346866811463 7.5686386023353 8.1453945264327 7.926173778048 7.6479794762007 7.0530543174125 5.7937493977403 7.1565427849232 6.6317798809277 6.0841794183347 8.3835483232901 6.5388349601453 7.8558797657159 5.0419513477683 8.5255252824068 6.0781360633481 8.0321411910877 8.6329088757017 8.7340266099994 7.7991190091275 9.036127883086 7.3344882007943 8.0619012889773 7.5412827377488 6.7383489663261 5.5785183222142 7.414898416081 5.884736525443 5.3247876852583 6.5706440627405 5.7117454667768 6.6221440731366 5.6015254056364 6.1772815162692 4.3698704117872 6.5167740931298 6.2231708973452 6.4878999409471 5.9329553315015 5.9339994124908 5.2152069662442 6.3789718324171 6.2731190920149 6.6566868623365 6.3259115407077 5.6055917929908 6.5602095001832 5.9795598294345 5.8899301659504 7.8238740508052 6.4342946420372 6.1784427677255 6.3453104293495 6.1043183749579 6.9569578660087 5.9636453746981 8.1202876881383 8.7272061796418 8.255277781377 7.5303311025234 5.6989869321049 7.2785213749868 7.068199110323 8.4440114497187 6.4774555620661 5.758155485443 8.1705949331665 6.5221627277403 5.5098185554684 6.5234463317762 7.264732107076 5.7947001430288 5.8959894247532 6.5185758935772 6.0829142880403 4.8006872507076 5.8850973228356 5.4057247142401 5.5732779863064 4.8046928946792 4.8845364046839 6.5740713493951 5.1751334873913 4.3925897910061 4.1562816802567 3.595872608963 4.4077838192379 4.6995722595098 7.1899685201885 7.3304743345693 6.7674878847999 6.8618508212382 9.3197949750907 5.8161585602949 6.538521971436 6.2611949693911 7.8006201981509 8.3799486249582 5.7996472061806 6.0051918038484 6.7317008397524 7.9375132172251 6.3079731106696 6.1512612633296 7.769310605645 6.5002645124412 5.2092473362988 5.7098512917763 6.0045306648885 5.4711590012 4.6491182428985 5.5752438617307 5.024563844935 6.2999858020463 6.8265695377303 6.7701740228881 5.3432326175158 6.2501217223108 5.8622896751833 5.6102061471517 5.274925782669 5.3932272365534 5.4502015752027 6.9345166020579 5.4882070739847 3.8972463941124 6.8940310835799 5.9756236847902 5.0426140805277 5.1817663355347 5.9526889777831 4.9556958360186 4.801710049722 6.3779094742448 6.9956229164285 6.9770387181723 4.844898362487 3.9252324525769 5.4275788565321 6.4605642021502 6.3734329016223 6.4624600279634 6.7568683548344 5.7397020109967 5.9562127591076 5.1214904089086 4.9452773033527 4.4344241647047 4.9339133983991 5.8369644375611 4.4171332608575 3.9499151833142 5.2065759601893 4.3305275269887 4.7086513598898 5.3416364247883 4.9465214156228 5.772749918182 5.5960388277459 6.0311156069489 6.6139682693292 5.7110639671988 6.012927232032 6.5799081601667 5.3001375185837 3.2288080223793 5.7336707510904 5.7062203037203 6.2684078078351 4.8389192659153 6.3976019202734 6.0931963435006 6.1505748472224 6.0172937901775 5.2802921287637 4.6602845144472 5.7180127116407 4.7665585660239 7.0279759749894 7.3473112195873 5.1308031355464 5.8642574006941 4.7728530607661 6.1230082219707 6.8000476317312 6.7511612699132 4.9523891382838 5.4470998259788 3.6765879988182 5.1695840076012 4.5916608984309 6.8250548618373 5.5284308426389 5.9094290256919 5.0318942666065 4.4716621352731 5.6859475500349 5.0306668022609 5.945498357374 4.3643589954735 4.4585376994205 6.4144244379155 5.2829428178961 4.6838590622402 6.4343818160018 5.4442153019788 6.3309025443893 4.7191518027682 5.5548127811683 5.4468041362853 4.7735766468324 5.6613208581292 5.1176716819409 6.926897913026 5.9583412402271 5.6511562112481 5.491547820043 5.7960840220955 6.247754933361 6.3332937806237 5.5474034986707 6.4397178134736 5.8438832742565 4.8172533770214 4.3146531839203 4.824571100227 4.904689137708 5.0287016169594 5.1972679472735 4.3536240444139 5.9320213060807 6.473728509073 3.2550367696525 4.6592269407806 5.8534265934216 4.4992821133265 5.8916230956255 4.8318698440174 4.8158544012641 3.787206085269 5.1708682278222 3.8126866888551 3.9974084082163 5.0162870783556 4.4506038766802 5.0487176880426 5.9971101196359 5.1584074940527 4.0318877843392 4.274245162303 4.830225874157 5.2653469754286 6.5685024830778 5.5834412141184 4.