# vtk DataFile Version 3.0
d-2__ created by libgimli-v1.1.0
ASCII
DATASET UNSTRUCTURED_GRID
POINTS 570 double
14.5	0	0
14.25	0	0
14.386963504964	-0.201738469428	0
22.399299936458	-0.310870122736	0
22.129824335287	-0.229914148082	0
22.126320781198	-0.518791771445	0
8.472303742627	-0.591754876635	0
8.780507935475	-0.76092407121	0
8.82173151259	-0.349253271447	0
18.663262297679	-0.667179415955	0
18.934786529245	-0.453308328646	0
18.636898038907	-0.29588182328	0
4.016904362632	-0.85330676142	0
4.076038737616	-0.331410355179	0
3.713721571226	-0.470767763626	0
1.89953779852	-0.269343012166	0
1.633800503821	-0.203067612233	0
1.644492760828	-0.441295523531	0
4.368408037607	-0.250833874131	0
4.337474161742	-0.544420985055	0
4.67745607622	-0.378433532554	0
1.406172533733	-0.772361039307	0
1.913288206557	-1.218576310882	0
1.90687689783	-0.651895683444	0
2.5	0	0
2.25	0	0
2.347047126858	-0.185539804102	0
1.374000926997	-0.300418771701	0
1.25	0	0
1.114902662369	-0.201591505098	0
1.067401015567	-0.470108640981	0
5.75	0	0
5.699780065382	-0.324747799653	0
5.924584257371	-0.172748359932	0
0.883560935405	-0.231136840652	0
1	0	0
9	0	0
9.117836368049	-0.253904480787	0
2.625577516194	-0.346770599322	0
17.859079774019	-0.943547525024	0
17.535029634209	-1.703182852412	0
18.338018094476	-1.366069799339	0
19.932263871771	-0.826489183604	0
19.881635677668	-0.346204516721	0
19.622287080959	-0.573770479943	0
1.5	0	0
1.75	0	0
23.25	0	0
23	0	0
23.109690227386	-0.220340974338	0
2.75	0	0
2.142562771237	-0.172460438312	0
2	0	0
23.332392704446	-0.202507275941	0
23.5	0	0
19	0	0
18.75	0	0
18.888143078348	-0.195773419804	0
2.90152418742	-0.185685383897	0
7.612175045312	-0.180627982114	0
7.527150943175	-0.401430797998	0
7.881917737402	-0.30462800112	0
25.630635194756	-0.512020961038	0
25.243766894324	-0.80097755811	0
25.758031115142	-0.952821630144	0
3	0	0
28.84859809239	-0.201276387394	0
29	0	0
28.75	0	0
4	0	0
3.835807353334	-0.199536243303	0
3.106904732949	-0.178783649348	0
29.25	0	0
29.092446172194	-0.305987136665	0
13.5	0	0
13.667851890428	-0.185102765244	0
13.75	0	0
3.75	0	0
14.407363653886	-0.441423674912	0
14.125469935998	-0.279652141152	0
4.25	0	0
5.061980176718	-0.407989246181	0
5.335512032876	-0.269401530321	0
5.113979852892	-0.173834924157	0
11.882046000841	-0.812345557852	0
12.478640631525	-1.146569360669	0
12.244190771573	-0.565936619511	0
3.633270844505	-0.195395238442	0
14	0	0
18.378272976509	-0.514977451159	0
5.5	0	0
9.619519097921	-1.16461851757	0
10.030576753886	-1.587265312651	0
9.961661342999	-1.070235523667	0
5.25	0	0
5	0	0
13.157975569138	-0.830425793913	0
13.83833027638	-1.238601004239	0
13.671302359608	-0.710707966059	0
11.325917093147	-0.8366783502	0
11.612143285947	-0.506264798476	0
6	0	0
7	0	0
6.83842404292	-0.188923754932	0
7.11236984822	-0.391746146843	0
6.631875629497	-0.169178192832	0
6.75	0	0
3.21002197083	-0.595267231049	0
3.445510026908	-0.608065324465	0
3.362318141622	-0.306501255187	0
6.120159502895	-0.164221934939	0
4.538525595924	-0.906226152762	0
13.233775457127	-1.737244787017	0
4.5	0	0
16.138065841822	-0.472802517973	0
16.126746690205	-0.221608117926	0
15.859319180798	-0.326402762318	0
26.080401003391	-0.227842452866	0
26.25	0	0
26	0	0
3.019224421113	-0.401469974918	0
8.234901607028	-0.35771789179	0
8.518285578354	-0.242327591839	0
8.328777073389	-0.153008859619	0
7.25	0	0
7.400656881666	-0.195280611572	0
7.5	0	0
5.385509485898	-0.709154879541	0
5.948697127931	-0.745234910621	0
8.75	0	0
8.5	0	0
8.25	0	0
2.214249105773	-0.404278959534	0
2.896561357202	-0.792481120253	0
9.25	0	0
4.920911116561	-0.192028847294	0
9.651670336652	-0.200847798694	0
9.849824537955	-0.19917205686	0
9.75	0	0
10.095049354068	-0.315754204277	0
10	0	0
3.25	0	0
6.738406513564	-0.710129601907	0
7.121614580011	-0.943026074581	0
11.345829942703	-0.314788260019	0
11.25	0	0
11.104427225455	-0.188863495516	0
6.052412255932	-0.372556729023	0
6.373371846535	-0.274163514827	0
10.25	0	0
10.380281579003	-0.241092027437	0
10.5	0	0
10.75	0	0
10.909079077441	-0.189427130481	0
11	0	0
6.25	0	0
6.5	0	0
4.75	0	0
3.5	0	0
10.672815698565	-0.318467932684	0
10.772487906066	-0.787092734739	0
11.020900486567	-0.439266778492	0
8	0	0
7.75	0	0
11.5	0	0
11.619450354736	-0.231443672836	0
11.75	0	0
8.139317726831	-0.163309591658	0
12.25	0	0
12.158949464947	-0.235415698299	0
12.412455385193	-0.275030800337	0
12.929165084344	-0.221336108042	0
12.686337592177	-0.258437422252	0
12.900449535554	-0.462768612232	0
12.5	0	0
9.405755833308	-0.325979504745	0
9.111697192308	-0.594170467817	0
9.457257345083	-0.753685223931	0
18.101369157139	-0.618560521812	0
18.336839281097	-0.861122419318	0
10.385948631267	-0.570640149046	0
9.5	0	0
13.411260455969	-0.342646276848	0
12.643108055516	-0.590179775368	0
13.137744715761	-0.195204172124	0
13	0	0
21.25	0	0
21.358341816502	-0.326561417551	0
21.5	0	0
13.816492716597	-0.40394453634	0
20.25	0	0
20.423452336785	-0.313445603959	0
20.5	0	0
17.789350393153	-0.390447709085	0
17.987794057246	-0.401472255242	0
17.881276545163	-0.206424156589	0
19.564465692234	-0.270867872644	0
19.290725118801	-0.49926248604	0
16.392319441256	-0.29915360323	0
19.443730892406	-0.923508713428	0
20.457987075478	-0.803203365193	0
20.167450719332	-0.505159975143	0
0.103762538371	-0.253013629949	0
0.267057015134	-0.483604909932	0
0.374713194419	-0.2320817565	0
13.25	0	0
17.415572543912	-0.230682214253	0
17.5	0	0
17.25	0	0
18.108153655084	-0.208141099276	0
18.25	0	0
18	0	0
15.75	0	0
15.544586046819	-0.246453491997	0
15.122708481244	-0.193620038745	0
15.25	0	0
15	0	0
19.75	0	0
24.149237782749	-0.319013340846	0
23.842766599446	-0.577371105011	0
24.183995039967	-0.73159476451	0
13.871646321742	-0.17394291424	0
23.862588150518	-0.245417872715	0
16.84024277193	-0.203626765466	0
16.704049384397	-0.435508179396	0
17.112673188265	-0.38804641709	0
24.75	0	0
24.832880292394	-0.290571430318	0
25	0	0
16.40158555625	-0.755912194683	0
16.850299990829	-0.757941865332	0
17.75	0	0
23.567455674596	-0.325197491724	0
16.25	0	0
16	0	0
22.645812614293	-0.197864648876	0
22.75	0	0
22.5	0	0
16.75	0	0
17	0	0
24	0	0
26.914424714815	-0.337869958787	0
26.621963281699	-0.624626679172	0
26.977877660759	-0.778408201088	0
26.622424322919	-0.264588309935	0
19.34462271879	-0.199329831305	0
19.25	0	0
19.118057075065	-0.225686869553	0
19.5	0	0
26.75	0	0
27	0	0
27.5	0	0
27.604422363523	-0.298869962794	0
27.75	0	0
17.650384190064	-0.227839036584	0
18.343198956448	-0.236734208617	0
18.5	0	0
24.25	0	0
20.143897114391	-0.233773711865	0
25.5	0	0
25.25	0	0
25.344389320279	-0.31693710653	0
21.059546193318	-0.24845941382	0
20	0	0
25.842927934822	-0.248287716678	0
25.75	0	0
25.613904645132	-0.216025146631	0
21	0	0
11.763551406169	-1.481607093928	0
30.981104050195	-0.5526690913	0
30.873880294509	-0.217692518774	0
30.706626759758	-0.34945139905	0
20.75	0	0
20.85240828135	-0.178025243856	0
23.75	0	0
20.66289882074	-0.189089155251	0
30.204950808504	-0.791758966623	0
30.715535843381	-1.149995259266	0
30.543724897762	-0.572259098027	0
30	0	0
30.180216671806	-0.343473673313	0
30.25	0	0
23.229584388362	-0.458653998547	0
29.5	0	0
29.623391954444	-0.322069028408	0
29.75	0	0
21.618913855927	-0.233585823579	0
21.75	0	0
29.348490380579	-0.521100538161	0
29.36294710412	-0.230601226356	0
22	0	0
22.25	0	0
28.25	0	0
28	0	0
28.129259193923	-0.314252106503	0
28.44374413871	-0.484576386004	0
28.100199615755	-0.812038297775	0
28.649230646972	-0.871769248311	0
28.618403654115	-0.227691192115	0
28.5	0	0
28.387848605749	-0.205892081491	0
29.054768525933	-0.708603081552	0
29.344906532636	-0.846887322836	0
26.327430876245	-0.35930637997	0
10.349120516034	-1.04150119828	0
10.894920134778	-1.514321070539	0
24.59640839418	-0.191760546865	0
12.75	0	0
24.5	0	0
13.102881121377	-0.411296235356	0
25.099388239946	-0.214879887129	0
25.97986022697	-0.52841375324	0
24.398993403151	-0.196312410538	0
17.860840746535	-0.577367743328	0
17.566481510048	-0.529340016102	0
26.5	0	0
16.637148248735	-0.188015807345	0
18.183918302467	-0.396443618316	0
27.159348252167	-0.205297590358	0
27.357530053515	-0.198815038154	0
27.25	0	0
15.060354649709	-1.112587998155	0
15.51532665618	-1.043792149387	0
15.178150912169	-0.713100616689	0
10.051363365948	-0.719159376333	0
14.661248691948	-0.27865166374	0
14.75	0	0
27.868836823455	-0.217301839861	0
31	0	0
30.75	0	0
-0.020273477909	-1.415389842481	0
1.054972770973	-1.487485199502	0
0.512583677021	-1.0438154777	0
0.75	0	0
2.361419414365	-0.794513604096	0
29.890297721653	-0.2433406165	0
30.473599299501	-0.238575611274	0
30.5	0	0
30.660802173874	-0.161931182737	0
28.783812899585	-0.467926883932	0
4.937022539393	-0.72440615077	0
6.696914540879	-0.380672503721	0
7.434272221796	-0.695675918868	0
15.339606453815	-0.166204802571	0
15.281953315711	-0.388999642276	0
11.893544445085	-0.335972898148	0
12	0	0
9.753796445798	-0.478866225926	0
7.720012958977	-0.638314519759	0
21.871398197179	-0.313006985103	0
21.615176662754	-0.521922347305	0
21.856785525528	-0.665128848631	0
20.792152536902	-0.448319093295	0
21.109577821412	-0.527879642114	0
21.360297691811	-0.734200004244	0
15.547854961707	-0.580173571081	0
24.496861814148	-0.467031445896	0
25.067351422649	-0.463427753535	0
24.81263825963	-0.684738154192	0
22.865620821195	-0.218348593093	0
23.443705587002	-0.773171720633	0
27.277617447467	-0.489224417775	0
27.863714790534	-0.471681393437	0
26.239117668995	-0.863279739365	0
29.896797054636	-0.547765129844	0
29.612773839625	-0.699757135752	0
29.867172666547	-0.87444432816	0
29.610354212963	-1.521444655905	0
29.59548165142	-1.071765512911	0
29.115129171034	-1.220660174798	0
31.345359428525	-0.458952144926	0
31.144859415042	-0.241304201582	0
15.919565295974	-0.746550096707	0
16.063006820294	-1.289595303187	0
16.5	0	0
14.900855313538	-0.178071167744	0
14.161016743654	-0.72559708689	0
19.011498044983	-0.834202892304	0
16.760433281999	-1.263698818643	0
17.280361389946	-0.931704507314	0
-0.627742252535	-0.296285438777	0
-1	0	0
-1	-0.5	0
0.625738545692	-0.228405936136	0
0.5	0	0
3.313957665883	-0.865581185485	0
3.619156095452	-0.800599314657	0
[...]
CELL_DATA 986
SCALARS 160.00_0.52 double 1
LOOKUP_TABLE default
5.8295452048794 6.579622667465 6.7150602574791 5.4404008552129 4.9780840073486 6.3317658688825 5.9856370871943 4.898046914957 6.4994724811115 7.053737338323 6.2323506629547 6.1773805489857 6.7764330208243 7.128749560004 6.8243895806504 6.8243720783357 3.9496087454348 6.0663173014849 5.9119464571065 6.2446792652108 6.8450591244534 6.4795105091326 4.8116551764945 6.6929484041325 6.6684150428266 6.3873011316392 6.8035921074887 5.1535287586674 6.2072516843094 6.0830661782124 6.0771997437161 6.0940373871863 6.7677661987324 6.1797208372364 5.9344691281189 6.5041745900334 7.0743239657772 5.857105978354 4.8198484371575 6.0266456014438 6.9829130429891 5.3374038043864 6.2778734723917 4.1686369888778 5.1410522003891 5.383456160545 5.3080589748133 5.5658708678815 5.7774140378985 8.0468062568823 7.0310634442529 7.5353198261063 4.997081678686 6.8082051064536 5.2834292965664 6.9195800240572 4.2168860251158 7.8756241598347 6.8396547313672 8.0605764101549 6.5560396979205 6.0156086756558 7.4185589121714 6.8655680467938 8.7231188789529 7.5160306300255 5.463605455408 5.2743371865348 7.4980889629999 5.681444510912 7.9236241798048 6.2693534017272 7.0652464824136 7.1676321614903 6.7141266082558 5.5422312755517 7.0833648477479 5.9983524343232 8.6093920391556 7.4168868116894 5.8983625692828 4.8858164524481 5.9784632185035 6.5819639817483 7.6758537020799 7.2655844856038 7.5269665793073 7.107339700175 6.6325589608516 8.7954448154999 5.5195017124276 6.6894500909639 5.4925680482106 8.1682202676273 6.4017064533501 6.8666582939278 7.6825170196734 6.9051565578175 6.376656221539 5.7308733392735 6.6412063099041 6.8918726520308 6.5522422900842 6.8995985919025 5.585781051473 4.9923589733557 6.632146253976 5.3509508202152 6.2275467225512 6.0999453228237 6.0163435275794 6.8910099678759 6.6065544192206 10.467289776629 6.6191637110683 9.3784577395482 6.6156597801172 6.3665002579521 6.4072430208739 6.8195759465352 5.5793057774394 6.8905457923723 6.4568674463428 5.5845614275533 6.1151217182076 5.868762211556 5.6315462107403 5.4428573110231 7.0100071495224 5.6025561992214 6.8386408867104 7.6333890114996 7.4884226778968 6.5811486912582 5.3838523619658 5.9916022406498 6.5591399473618 6.9751090511555 10.160091865765 6.1989880080168 7.0215222122308 6.9987516412476 6.4279171540588 5.6018236578861 7.4507662067595 7.0355547707988 7.6420048982467 5.2403752908526 6.1151327973105 5.582014136367 8.4007622651966 9.4231371223469 5.6463487198447 8.1207997510347 7.6540030916325 8.239972342308 6.3276270374041 6.5082643699731 7.0527642199451 5.7037285430206 8.6489960281075 7.7758303889253 9.0554277555616 8.7387163226145 5.9748995025294 9.746557195163 4.6903428756246 6.7100476265174 7.2736183173596 11.589711131767 8.04598065574 6.315666112406 5.0217203317625 9.5636653615377 6.1388821070514 6.0811470901742 6.2315982244883 7.2112344383541 6.5464810466606 6.7689821732064 5.2678417519322 7.5121544050265 6.9069302260241 5.2228852870847 5.3505974684569 5.834410138271 7.0194158593378 5.8095369381328 6.5391130985821 5.5995423659039 5.6827468114426 4.793906655606 9.3153785594332 4.7871507829327 9.0905775054516 9.2938596244523 4.8163226689325 7.8126201732719 9.4531808483688 6.4129556754166 7.5560359609456 6.2826216371985 6.6853538867808 7.699752293439 6.7248837382071 5.778895780078 6.2863059595844 6.2406494705416 6.040671892 5.8708705452366 5.2971483449395 6.9156457028676 5.8770135407218 6.0264219376324 7.4094588675439 7.1949500547155 4.4765607110725 7.1416138065696 4.7350568344174 6.0440859510038 7.3205682270201 6.4910563972932 6.7607372404989 9.0350064698503 6.9498403352899 6.5357613908041 6.5105260141691 6.9183586082481 6.1672867987093 6.3580301737462 9.9755011934348 4.1555223320481 7.0472980412492 6.8219684145766 7.83010706839 5.7055166783603 6.3280243611575 5.4089805219163 6.1969566130282 6.3600723888111 7.9558700009024 6.6879024404116 6.865931191944 5.3899778631376 9.7667961314385 6.6741789483151 6.3121216654984 9.4425774847153 6.0416487147743 7.6131831919234 5.5596328394103 7.7675529545616 5.1407187001045 6.2173762922705 7.77255743812 5.7394092677392 6.5780874095671 6.6609849139626 6.8164193035823 5.503605969404 5.9695261730996 5.6926623762217 6.1860156950485 6.0474616611583 6.2259557056086 7.2681009932497 6.1959121100564 5.6824824885446 7.5091810451799 6.6806754621744 6.0546437620144 7.489362836871 6.4914622125219 7.5791657488599 6.2116899264939 7.0536561721794 6.3676767587733 6.456022309355 6.6400112717447 6.6133316421196 5.9862233279974 6.9896756071129 6.5555209842142 6.737979027201 5.2873790038657 6.7090604736661 6.5541187371834 7.0385557250221 9.2435260178651 7.3171881543962 6.7924840578829 6.3546759029207 5.9209349557112 5.5804789741615 6.423857307075 9.8451485917962 6.3031063035891 7.3143997267168 7.4033530560629 7.2476870168817 5.6660666876849 7.9773079326849 7.7323575254288 7.2034922863359 5.3637356133274 6.1787235884431 7.694147670598 7.457949163082 7.2238694259291 6.4143925053572 6.5998452969447 6.9200546716543 6.714348325625 7.0812519943149 6.3689501943508 5.816759144748 5.3061560270296 5.8213392065236 6.5650302597141 5.9515043565011 6.1704679780357 6.7122880400713 7.8661985983683 6.893550775335 6.1000169660114 6.1061822584119 5.9006803952193 5.4995939495422 5.5232754421372 4.2733767667083 5.559162066568 6.1088509077713 7.8811711504985 6.2759557292092 6.5109432991818 6.3349609616407 6.29542914326 8.4439576422272 6.0472761589837 6.1926489029227 4.483313133153 4.831389487462 7.599117465853 7.2603459027381 6.8514196307922 6.6721734749536 8.0925373015176 10.05503823987 6.8746056251885 5.8763098288622 6.5070582486393 5.0120679435769 6.0321215109209 4.8657012362765 5.8935408751136 5.2693600709226 4.9930055033324 5.6318624943641 5.3439099796953 8.8903206357523 5.9384110057009 4.4586988638925 5.8403347413075 5.9191125256026 5.9542608339147 5.1691608688992 4.748048230881 4.3416242499111 6.3024309052523 7.0569008481937 6.3206279964684 6.945618115692 5.311838415935 4.7435097738366 5.6993730548187 6.0792214186179 5.348258088944 6.9727182846492 7.5731180393763 5.0956389477626 4.4579588665256 5.7673682227161 6.3758255659994 6.1064899875483 7.797002903818 6.819098999258 5.9238261212314 6.4649698235996 5.3868299261326 6.9224226515653 6.1926871741368 5.8345406338023 4.8718859273057 6.7370101706536 5.8281226029347 7.1111272886296 5.6876055509335 7.2456792657505 7.05125716671 6.3710902398661 6.3317146441749 7.6062614173178 7.0245402000847 6.8463321320804 4.7461262893647 7.3586168703545 4.9930106800515 7.0847571447748 7.4449314512197 6.0366026193024 7.01138108471 6.4702765399736 6.3096131325421 5.8246772873734 6.4643989967705 6.7767602951971 5.4127001950717 5.7615142623492 4.86938475596 5.5087523053663 5.0598070901071 5.6248765274738 6.5460135624486 5.6078413013975 5.5758793542442 6.9334258896283 5.539082723374 5.2938435238199 6.0952661095343 5.4270621381193 5.685473330774 6.9328160229363 6.4864226649108 8.3091290756095 4.2570692965521 6.6930494041985 4.6951078984887 6.6725344033814 4.2898341346591 6.8900680668362 4.375303201658 6.0255321477596 7.7112194129802 6.7652584192302 4.4851393902722 6.1480546232734 4.0109930899855 7.0771297185101 5.40811162041 5.7635125326462 6.97065182353 6.6902715138483 6.630657528806 5.4044397112968 4.7079045406867 3.8390116381728 5.7521804860766 6.7760536721305 6.0435533641057 6.2461101759052 5.6035126383591 7.9517144549003 5.8290290596437 4.8827282117566 5.4401160063455 4.0817306061053 4.8016591001219 5.5883810664299 4.4987470399342 4.2088793805063 4.6407293333176 6.0004697182031 5.1666763209942 4.13379742984 3.7766958283674 6.9683244135189 6.284167275776 6.2705980889041 5.3220974360352 4.3335315673696 5.131613281375 4.3199341594777 4.6674622892154 7.3175932836918 6.8969236359066 5.4490087845785 5.8152935952241 6.4323800195342 5.7487842805814 6.0252560337795 4.0306667812671 6.355281730871 7.3879719668845 6.7874862262262 5.4677537392861 4.7674108891224 4.1260561653428 3.5197382382383 4.9992846595201 6.5813845683142 5.1685914775203 5.5232311191754 4.5265515415617 5.0099737218725 6.4051593109304 7.1684988970938 4.6455326075928 6.1215195809086 7.2390526242287 3.7507199368932 6.2099999305424 9.4242345381477 5.9475460479084 4.2539388080481 5.8468951043687 6.3818137923128 4.88266360061 4.7316359353562 4.0368506912636 6.5722124819333 6.5834138912324 4.3484204612617 5.7967122224964 6.4936196978683 4.9043034983957 4.6409451454285 4.0787989780386 6.2518140810073 6.0801903848193 5.8980510458958 6.0054733967053 4.5150744853125 6.1353588840627 7.5515439474753 5.8210615129819 4.5220131765812 6.7285788805378 6.260348482953 4.3413330047375 3.3719964146411 6.2662305973582 4.7701838250375 6.7915880917617 6.5804330169732 4.3889642541941 6.2847080984482 3.4470181740136 4.7325342377562 3.3061269706711 3.9146630391216 6.2433454301281 4.5985292504261 6.1808699939448 4.5799070995108 6.7094456510392 6.1553804674452 4.7041562856872 6.2520065644629 4.4097548651008 4.633525363873 5.0604592043247 4.6803259674277 5.615356332659 4.6131689904617 5.7908214642246 7.3602346201186 4.3627822805306 4.1808475812528 5.4991701909554 4.924945990031 6.744548014349 4.8899663480204 6.6052919709277 5.4478879906437 6.4117140941754 6.1860540585147 4.5072994328404 3.5086287689533 6.0866270147792 5.5838918569047 5.1398962173066 5.1837006552723 7.33918458241 6.3789884779637 4.3783365218516 6.0543635891954 6.3461460714951 6.2513330923355 5.8785090591893 5.2848734244689 5.6035742187169 5.0850659125424 3.6820626527095 5.518185596939 3.7439039588964 6.2779277249786 4.9501574850884 5.7210314121541 4.5279520560248 5.2040120431228 5.0344204950676 5.5727032220371 5.3093558600068 4.642069696598 3.9733215776717 3.4936328742345 4.0655189289028 5.2771949402985 6.5846348041887 6.0643208270062 5.5262555427903 4.8074564478241 4.1068341058049 7.0544477914528 4.2957908946145 7.26165345539 5.9814993729658 3.3729814581142 5.8525937887363 6.3995560492058 5.6478005518831 6.4765339210525 5.9442745420675 4.3866201031198 4.4379948239051 4.389197552549 5.5505653242966 5.5448529768974 3.5651729294827 4.1302791282953 3.692677143694 4.200172555197 3.8013369446984 6.3441592625992 4.425930960272 6.5172992884484 4.0580475116329 4.1293215856717 4.1884258076711 5.635659126724 3.8595858226191 3.7857379867255 4.9803063864924 4.1075196392379 3.3776850821939 4.8485743749906 6.6742090525474 6.1977292775005 5.4784305623379 3.6622611209019 4.2104669420327 3.9407680138541 5.5267800586912 5.6251266743822 5.1718698420727 5.1212820975251 6.2556796493504 5.1746397577967 4.5206463942443 5.6788618982879 4.8314095192876 5.4412255046448 4.2946475521739 5.2862984864097 5.6209656094307 4.8445290077324 5.5250155683237 5.225619527882 5.5799165634971 5.788302682811 6.029943266445 5.0894981388764 5.6765526568287 3.7223982057622 4.5712614743967 6.6863343669577 3.8106536856664 6.5105581319615 5.5994319382292 4.8443384018008 4.982041767497 5.0132709745795 4.1343187741569 3.9757636625188 4.1335547801087 3.9279649854086 4.2685649066548 6.4350967241206 7.6636369194306 6.6414246223378 7.2350227009118 3.8275941193393 3.4182050238825 4.3261968032138 4.4977632001287 4.6559073492787 4.550717782003 4.6588992433399 4.3048953935086 4.9385723550312 5.4202043464892 5.1577542470103 5.1036195652359 5.090175255561 4.6799253160046 4.8065958412074 4.0519861622157 5.4680149483261 5.3581977182179 3.9024241216581 3.2536987543923 3.198679861805 3.6296092568126 3.6435974177057 5.3024653691323 4.5298208391286 5.4109452141879 5.0075959953744 6.4320978826923 6.9223609656041 3.4615706512413 3.8690954076331 5.7301361986499 4.3961722075347 3.3346780565532 3.5525479110497 4.2297398058234 5.585658201377 6.7919083923338 5.1696393454122 6.0887457475143 4.1771970098648 4.306195391494 6.9019598676636 4.2653531967136 5.1843939826205 7.9251409980135 4.0936177545132 3.6801379150889 5.7602799702043 5.9709720366611 4.1911858016067 3.8440933436135 3.6219207445928 5.0280644520785 3.7836144812898 3.9851165214001 3.2721310304153 3.3233403526776 3.5864737552764 6.3989873530188 3.8676638676566 4.8104411781429 3.7514108453635 4.2694373690082 3.786842826368 4.3607767281028 6.2949305175068 3.2477102651652 5.1987343927378 3.1445834007765 3.4948386547083 4.4769380030285 3.6723960980089 3.4473986937556 3.4659904063557 3.8726891340373 3.6422056982178 3.9613775095947 3.5030455964603 5.6388629161111 4.2155370885879 3.4668459724532 3.5381013640002 3.9990725143011 3.7948433723229 5.1333124734205 5.013035429295 5.6996891227245 5.4768675709135 4.7337687680926 5.1283809583587 4.3710356517845 4.6484955608808 5.3384186141061 5.0535360830095 4.1926978565392 4.4780597794402 4.4591801492471 5.4074671496289 4.8334538930882 3.1826433706758 3.9525272773971 4.1775317026269 3.8345866306384 3.7475097701737 3.3717142153249 3.498070317765 3.3058755097034 3.8832609766914 3.3275693512656 3.7954586616557 4.0183007228193 6.909808860792 3.6288431867894 4.3788608201388 4.1898296171744 7.1260353141365 5.3232466263315 3.3934981462907 3.407508381468 3.2418680660172 3.7692761190627 4.3100111960281 6.8550690686731 3.3373014213024 3.6400853420685 3.848472569983 3.1540016007889 3.8830844190823 4.2527475191547 3.9292595478955 3.8286072246129 3.4388002269745 3.8704630256266 3.7204237152432 3.3479252751268 3.8506887521587 3.1513792055125 3.411356894259 3.913477101414 3.8439120827414 3.1727811520694 3.2747144520956 3.1299386862133 3.2588847317834 3.1581927800207 3.2508918732918 3.2379776166579 3.7990859773836 3.7075288119263 4.4157036766674 4.5187389810709 3.4163648177475 3.3481753478733 3.1783171899061 3.8570000100504 3.3138728590004 3.3227258593053 3.1852469308069 3.2014866483625 3.1844610703945 3.4292478614107 3.2531337360833 3.7454651719637 3.1759429295838 3.3220878395487 3.5831345207821 3.5667203365743 3.1295244733413 3.1390124331981 3.167764725316 3.2677870590127 3.1493793251849 3.1396441917001 3.139939573441 3.2381646213833 3.2036792688758 3.1628699176311 3.53568091113 3.2244577278584 3.3572503751424 3.1387317610432 3.9301501099565 3.1114662874015 3.2717475137081 3.121025195702 3.1483306190275 3.2117709993405 3.1573365541339 3.3423119997897 3.2955203960619 3.3473777604281 3.6183967064855 3.1684047798729 3.4455583216121 3.1674615323419 3.1117809314082 3.3113254355376 4.0679705979908 3.3616846570269 3.2613570617548 3.22276444438 3.7252407396837 3.3725768868213 4.2555856973183 3.5225160721076 3.3523782120867 3.4298384732556 3.3261662832886 3.1747252279167 3.5337141102331 3.5844890773068 3.4890168562123 3.5279200155668 3.4924524245209 3.4442408362893 3.7247324121094 3.1719114940246 3.5168460552187 4.3493652518519 3.9488898342846 3.7636371330831 3.3329820276029 3.9300705042039 3.2294981775806 3.6325700798578 3.3733259267919 3.8816986456792 3.521567206634 3.7517402455254 4.1580024434657 3.4866462752744 4.0719527422903 3.7051106083454 3.663097143816 3.7249114181117 3.7741598362187 3.9792559213432 3.7823421480319 4.1253358789625 3.430661333997 3.4128704236669 3.3021874580485 3.3447162633947 3.5653583536518 3.9103099542939 4.1010081520098 3.9665389374947 3.5557592641254 3.8803574547902 4.0220649427005 4.041463169816 4.4793825530445 4.1345524512661 3.5629724222324 3.5220500594652 3.4652194983835 3.7030699287281 3.8284632790989 3.3528920593186 3.6648441251477 3.8429767796639 3.5400600713762 3.7249034478404 3.5518958016461 3.9165600222306 3.9434391907444 4.0692863997207 3.8918751007662 4.3151881375802 4.2711056623425 4.1443908898815 4.0956560616138 4.0551698319408 4.2403374916721 4.2450272988196 4.2584026242396 4.2122408835638 3.8877845841764 3.532454455596 4.3792802797865 4.0521692360507 3.7814499813062 3.9704513204586 4.1452270167928 4.2414528552735 3.8674008694111 4.0469422310762 4.3647682936951 4.3588992723405 4.4071799488997 4.4544647176788 4.1905317981218 4.4875230965975 4.4498357075592 
SCALARS 20.00_0.09 double 1
LOOKUP_TABLE default