# vtk DataFile Version 3.0
d-2__ created by libgimli-v1.1.0
ASCII
DATASET UNSTRUCTURED_GRID
POINTS 570 double
14.5	0	0
14.25	0	0
14.386963504964	-0.201738469428	0
22.399299936458	-0.310870122736	0
22.129824335287	-0.229914148082	0
22.126320781198	-0.518791771445	0
8.472303742627	-0.591754876635	0
8.780507935475	-0.76092407121	0
8.82173151259	-0.349253271447	0
18.663262297679	-0.667179415955	0
18.934786529245	-0.453308328646	0
18.636898038907	-0.29588182328	0
4.016904362632	-0.85330676142	0
4.076038737616	-0.331410355179	0
3.713721571226	-0.470767763626	0
1.89953779852	-0.269343012166	0
1.633800503821	-0.203067612233	0
1.644492760828	-0.441295523531	0
4.368408037607	-0.250833874131	0
4.337474161742	-0.544420985055	0
4.67745607622	-0.378433532554	0
1.406172533733	-0.772361039307	0
1.913288206557	-1.218576310882	0
1.90687689783	-0.651895683444	0
2.5	0	0
2.25	0	0
2.347047126858	-0.185539804102	0
1.374000926997	-0.300418771701	0
1.25	0	0
1.114902662369	-0.201591505098	0
1.067401015567	-0.470108640981	0
5.75	0	0
5.699780065382	-0.324747799653	0
5.924584257371	-0.172748359932	0
0.883560935405	-0.231136840652	0
1	0	0
9	0	0
9.117836368049	-0.253904480787	0
2.625577516194	-0.346770599322	0
17.859079774019	-0.943547525024	0
17.535029634209	-1.703182852412	0
18.338018094476	-1.366069799339	0
19.932263871771	-0.826489183604	0
19.881635677668	-0.346204516721	0
19.622287080959	-0.573770479943	0
1.5	0	0
1.75	0	0
23.25	0	0
23	0	0
23.109690227386	-0.220340974338	0
2.75	0	0
2.142562771237	-0.172460438312	0
2	0	0
23.332392704446	-0.202507275941	0
23.5	0	0
19	0	0
18.75	0	0
18.888143078348	-0.195773419804	0
2.90152418742	-0.185685383897	0
7.612175045312	-0.180627982114	0
7.527150943175	-0.401430797998	0
7.881917737402	-0.30462800112	0
25.630635194756	-0.512020961038	0
25.243766894324	-0.80097755811	0
25.758031115142	-0.952821630144	0
3	0	0
28.84859809239	-0.201276387394	0
29	0	0
28.75	0	0
4	0	0
3.835807353334	-0.199536243303	0
3.106904732949	-0.178783649348	0
29.25	0	0
29.092446172194	-0.305987136665	0
13.5	0	0
13.667851890428	-0.185102765244	0
13.75	0	0
3.75	0	0
14.407363653886	-0.441423674912	0
14.125469935998	-0.279652141152	0
4.25	0	0
5.061980176718	-0.407989246181	0
5.335512032876	-0.269401530321	0
5.113979852892	-0.173834924157	0
11.882046000841	-0.812345557852	0
12.478640631525	-1.146569360669	0
12.244190771573	-0.565936619511	0
3.633270844505	-0.195395238442	0
14	0	0
18.378272976509	-0.514977451159	0
5.5	0	0
9.619519097921	-1.16461851757	0
10.030576753886	-1.587265312651	0
9.961661342999	-1.070235523667	0
5.25	0	0
5	0	0
13.157975569138	-0.830425793913	0
13.83833027638	-1.238601004239	0
13.671302359608	-0.710707966059	0
11.325917093147	-0.8366783502	0
11.612143285947	-0.506264798476	0
6	0	0
7	0	0
6.83842404292	-0.188923754932	0
7.11236984822	-0.391746146843	0
6.631875629497	-0.169178192832	0
6.75	0	0
3.21002197083	-0.595267231049	0
3.445510026908	-0.608065324465	0
3.362318141622	-0.306501255187	0
6.120159502895	-0.164221934939	0
4.538525595924	-0.906226152762	0
13.233775457127	-1.737244787017	0
4.5	0	0
16.138065841822	-0.472802517973	0
16.126746690205	-0.221608117926	0
15.859319180798	-0.326402762318	0
26.080401003391	-0.227842452866	0
26.25	0	0
26	0	0
3.019224421113	-0.401469974918	0
8.234901607028	-0.35771789179	0
8.518285578354	-0.242327591839	0
8.328777073389	-0.153008859619	0
7.25	0	0
7.400656881666	-0.195280611572	0
7.5	0	0
5.385509485898	-0.709154879541	0
5.948697127931	-0.745234910621	0
8.75	0	0
8.5	0	0
8.25	0	0
2.214249105773	-0.404278959534	0
2.896561357202	-0.792481120253	0
9.25	0	0
4.920911116561	-0.192028847294	0
9.651670336652	-0.200847798694	0
9.849824537955	-0.19917205686	0
9.75	0	0
10.095049354068	-0.315754204277	0
10	0	0
3.25	0	0
6.738406513564	-0.710129601907	0
7.121614580011	-0.943026074581	0
11.345829942703	-0.314788260019	0
11.25	0	0
11.104427225455	-0.188863495516	0
6.052412255932	-0.372556729023	0
6.373371846535	-0.274163514827	0
10.25	0	0
10.380281579003	-0.241092027437	0
10.5	0	0
10.75	0	0
10.909079077441	-0.189427130481	0
11	0	0
6.25	0	0
6.5	0	0
4.75	0	0
3.5	0	0
10.672815698565	-0.318467932684	0
10.772487906066	-0.787092734739	0
11.020900486567	-0.439266778492	0
8	0	0
7.75	0	0
11.5	0	0
11.619450354737	-0.231443672836	0
11.75	0	0
8.139317726831	-0.163309591658	0
12.25	0	0
12.158949464947	-0.235415698299	0
12.412455385193	-0.275030800337	0
12.929165084344	-0.221336108042	0
12.686337592177	-0.258437422252	0
12.900449535554	-0.462768612232	0
12.5	0	0
9.405755833308	-0.325979504745	0
9.111697192308	-0.594170467817	0
9.457257345083	-0.753685223931	0
18.101369157139	-0.618560521812	0
18.336839281097	-0.861122419318	0
10.385948631267	-0.570640149046	0
9.5	0	0
13.411260455969	-0.342646276848	0
12.643108055516	-0.590179775368	0
13.137744715761	-0.195204172124	0
13	0	0
21.25	0	0
21.358341816502	-0.326561417551	0
21.5	0	0
13.816492716597	-0.40394453634	0
20.25	0	0
20.423452336785	-0.313445603959	0
20.5	0	0
17.789350393153	-0.390447709085	0
17.987794057246	-0.401472255242	0
17.881276545163	-0.206424156589	0
19.564465692234	-0.270867872644	0
19.290725118801	-0.49926248604	0
16.392319441256	-0.29915360323	0
19.443730892406	-0.923508713428	0
20.457987075478	-0.803203365193	0
20.167450719332	-0.505159975143	0
0.103762538371	-0.253013629949	0
0.267057015134	-0.483604909932	0
0.374713194419	-0.2320817565	0
13.25	0	0
17.415572543912	-0.230682214253	0
17.5	0	0
17.25	0	0
18.108153655084	-0.208141099276	0
18.25	0	0
18	0	0
15.75	0	0
15.544586046819	-0.246453491997	0
15.122708481244	-0.193620038745	0
15.25	0	0
15	0	0
19.75	0	0
24.149237782749	-0.319013340846	0
23.842766599446	-0.577371105011	0
24.183995039967	-0.73159476451	0
13.871646321742	-0.17394291424	0
23.862588150518	-0.245417872715	0
16.84024277193	-0.203626765466	0
16.704049384397	-0.435508179396	0
17.112673188265	-0.38804641709	0
24.75	0	0
24.832880292394	-0.290571430318	0
25	0	0
16.40158555625	-0.755912194683	0
16.850299990829	-0.757941865332	0
17.75	0	0
23.567455674596	-0.325197491724	0
16.25	0	0
16	0	0
22.645812614293	-0.197864648876	0
22.75	0	0
22.5	0	0
16.75	0	0
17	0	0
24	0	0
26.914424714815	-0.337869958787	0
26.621963281699	-0.624626679172	0
26.977877660759	-0.778408201088	0
26.622424322919	-0.264588309935	0
19.34462271879	-0.199329831305	0
19.25	0	0
19.118057075065	-0.225686869553	0
19.5	0	0
26.75	0	0
27	0	0
27.5	0	0
27.604422363523	-0.298869962794	0
27.75	0	0
17.650384190064	-0.227839036584	0
18.343198956448	-0.236734208617	0
18.5	0	0
24.25	0	0
20.143897114391	-0.233773711865	0
25.5	0	0
25.25	0	0
25.344389320279	-0.31693710653	0
21.059546193318	-0.24845941382	0
20	0	0
25.842927934822	-0.248287716678	0
25.75	0	0
25.613904645132	-0.216025146631	0
21	0	0
11.763551406169	-1.481607093928	0
30.981104050195	-0.5526690913	0
30.873880294509	-0.217692518774	0
30.706626759758	-0.34945139905	0
20.75	0	0
20.85240828135	-0.178025243856	0
23.75	0	0
20.66289882074	-0.189089155251	0
30.204950808504	-0.791758966623	0
30.715535843381	-1.149995259266	0
30.543724897762	-0.572259098027	0
30	0	0
30.180216671806	-0.343473673313	0
30.25	0	0
23.229584388362	-0.458653998547	0
29.5	0	0
29.623391954444	-0.322069028408	0
29.75	0	0
21.618913855927	-0.233585823579	0
21.75	0	0
29.348490380579	-0.521100538161	0
29.36294710412	-0.230601226356	0
22	0	0
22.25	0	0
28.25	0	0
28	0	0
28.129259193923	-0.314252106503	0
28.44374413871	-0.484576386004	0
28.100199615755	-0.812038297775	0
28.649230646972	-0.871769248311	0
28.618403654115	-0.227691192115	0
28.5	0	0
28.387848605749	-0.205892081491	0
29.054768525933	-0.708603081552	0
29.344906532636	-0.846887322836	0
26.327430876245	-0.35930637997	0
10.349120516034	-1.04150119828	0
10.894920134778	-1.514321070539	0
24.59640839418	-0.191760546865	0
12.75	0	0
24.5	0	0
13.102881121377	-0.411296235356	0
25.099388239946	-0.214879887129	0
25.97986022697	-0.52841375324	0
24.398993403151	-0.196312410538	0
17.860840746535	-0.577367743328	0
17.566481510048	-0.529340016102	0
26.5	0	0
16.637148248735	-0.188015807345	0
18.183918302467	-0.396443618316	0
27.159348252167	-0.205297590358	0
27.357530053515	-0.198815038154	0
27.25	0	0
15.060354649709	-1.112587998155	0
15.51532665618	-1.043792149387	0
15.178150912169	-0.713100616689	0
10.051363365948	-0.719159376333	0
14.661248691948	-0.27865166374	0
14.75	0	0
27.868836823455	-0.217301839861	0
31	0	0
30.75	0	0
-0.020273477909	-1.415389842481	0
1.054972770973	-1.487485199502	0
0.512583677021	-1.0438154777	0
0.75	0	0
2.361419414365	-0.794513604096	0
29.890297721653	-0.2433406165	0
30.473599299501	-0.238575611274	0
30.5	0	0
30.660802173874	-0.161931182737	0
28.783812899585	-0.467926883932	0
4.937022539393	-0.72440615077	0
6.696914540879	-0.380672503721	0
7.434272221796	-0.695675918868	0
15.339606453815	-0.166204802571	0
15.281953315711	-0.388999642276	0
11.893544445085	-0.335972898148	0
12	0	0
9.753796445798	-0.478866225926	0
7.720012958977	-0.638314519759	0
21.871398197179	-0.313006985103	0
21.615176662754	-0.521922347305	0
21.856785525528	-0.665128848631	0
20.792152536902	-0.448319093295	0
21.109577821412	-0.527879642114	0
21.360297691811	-0.734200004244	0
15.547854961707	-0.580173571081	0
24.496861814148	-0.467031445896	0
25.067351422649	-0.463427753535	0
24.81263825963	-0.684738154192	0
22.865620821195	-0.218348593093	0
23.443705587002	-0.773171720633	0
27.277617447467	-0.489224417775	0
27.863714790534	-0.471681393437	0
26.239117668995	-0.863279739365	0
29.896797054636	-0.547765129844	0
29.612773839625	-0.699757135752	0
29.867172666547	-0.87444432816	0
29.610354212963	-1.521444655905	0
29.59548165142	-1.071765512911	0
29.115129171034	-1.220660174798	0
31.345359428525	-0.458952144926	0
31.144859415042	-0.241304201582	0
15.919565295974	-0.746550096707	0
16.063006820294	-1.289595303187	0
16.5	0	0
14.900855313538	-0.178071167744	0
14.161016743654	-0.72559708689	0
19.011498044983	-0.834202892304	0
16.760433281999	-1.263698818643	0
17.280361389946	-0.931704507314	0
-0.627742252535	-0.296285438777	0
-1	0	0
-1	-0.5	0
0.625738545692	-0.228405936136	0
0.5	0	0
3.313957665883	-0.865581185485	0
3.619156095452	-0.800599314657	0
[...]
CELL_DATA 986
SCALARS 100.00_1.93 double 1
LOOKUP_TABLE default
6.458987125905 8.1923448341006 7.5848669358174 7.0056766630053 4.9995964173872 8.7686126214487 9.8000362868608 6.2188562480594 10.083683619798 7.7349169493864 8.8248836157032 6.3828144564564 11.049764576574 13.329591536262 10.218361727383 7.0394260249565 3.4176865470422 9.0442261319339 8.4818970546787 7.6174113733961 9.5439156953176 10.705413324767 7.7988201324165 8.8834429986652 37.296819172518 8.7791256576581 10.164062103653 6.0050528059748 8.1157000442062 9.4319237436953 7.0325842691605 12.346979452428 7.9300429358777 13.920516240449 3.7447146663059 10.238675920466 17.415280700516 9.6469366738064 4.4851578461395 3.7751591999353 7.3738912469815 4.3149404652853 10.051054996902 3.6076691839519 13.281516124097 10.820221120677 5.7826727758274 5.6545169700686 5.9996564937474 7.7951881548661 8.4474600901285 4.3349016129978 5.2790110086364 10.360069916218 6.860971867301 5.9724757443751 3.4604548221588 21.723418908201 6.9683567778051 4.4733424327933 6.8036885983034 9.1186458280125 13.14855448049 8.2351502726789 25.532853985381 23.054487452956 6.9220684742636 7.2395747570704 9.278150330003 10.877094092205 10.065018723293 15.711134108334 17.84921431343 14.577651776823 10.061719179728 7.40878408824 18.789520341446 9.4616446907999 14.898655898743 14.299139842946 17.990981316963 4.4211259662976 10.92030143643 9.3867637312858 7.0082943605931 16.584418399147 9.9796908034221 7.046356197924 26.3893326366 22.456116725395 6.604563532313 7.807861522295 13.487949469908 14.58067701047 9.1057114271032 9.2291912389793 8.326279882656 9.6618964664758 15.913617303843 10.414523098036 21.463269530332 6.2958825122411 7.8284062856782 21.920162749204 5.2003964825621 3.7017045890748 9.4708326372756 8.4236221334538 8.0795196066863 10.875601357362 6.2922756170328 10.823392359627 9.3670995961711 5.4089380259915 9.9552786149419 9.5145884476409 8.151625601596 7.5492676825011 9.2828420900141 7.0452342306909 7.7306068770398 12.194031489254 9.8910663875 6.627991988967 7.9897976343262 11.562082906324 7.1320790803535 5.2964134753567 8.576540995646 7.9809724457628 12.56202705457 7.5809563897972 27.87507377081 7.029553681995 5.1528568364917 17.116617005669 6.8371205697021 19.297573781568 21.171855572805 8.2757699049978 7.7072656011517 7.8916086786959 7.8521807461247 19.511363013769 51.026259861423 28.317907980615 7.7235909586662 5.1123881832219 14.206694384546 6.6945256628594 7.6027208854664 7.9689158868849 6.5093505334119 6.7907912757976 23.258169204769 11.141148242442 13.718292177322 5.9389325325299 6.2397210713015 7.6200981995249 9.7445736351278 8.1466835050508 5.6196198615679 9.3585897250122 14.476177574762 6.7641838715859 4.2501225506114 8.2535291332252 16.14358128402 12.975819438351 20.166061703875 5.9903586656391 4.8372575081446 5.5271708356011 8.7327545195012 16.52790654954 13.390670196297 8.5302597743291 9.2970890191363 11.204444388856 8.8718753735085 10.025932899089 10.284856722716 5.8544810404993 7.2048377206551 9.2240568849436 12.123286718559 8.8538828809822 8.6051614419715 6.4155398560877 7.2234846520136 4.7899055919489 10.392979305683 3.7376685695524 13.795928036135 9.4796100607416 4.012657434813 15.219836853639 12.466075107532 8.3598006469887 12.305582342115 9.2477330175802 5.8429657970847 7.6903046203644 9.8441160584517 5.881990073739 6.8775228724035 16.058918488237 6.3274619596223 15.394087871143 7.4192929777474 13.869400652147 9.3581141756779 6.2174695505807 4.1029356492135 3.7510960591513 3.7357177889768 8.430352235204 4.4719631960632 8.4440418368047 9.0866665780194 7.3355461676976 19.924985835635 8.0506606379349 18.430826144209 10.308501199928 9.4906247624661 19.647681083168 8.5951030616259 8.4016865966253 11.593770402818 4.5983990624508 7.5310466808954 8.0224696157487 15.934978758749 8.6159371993074 8.9151926166744 6.7608122911147 9.9935703642589 8.8530170519869 5.8946021866868 5.8336731311293 10.001980270992 11.402186741907 9.5597611448974 12.820840969365 3.660561773703 10.169796414698 10.809029693795 6.6715479229574 5.4333169651286 7.0242902117108 6.3656345266389 9.4330126980965 10.323600916494 4.5560305423739 7.7569561111937 9.6636465448196 6.7965110844531 6.4805190420869 10.937406638632 14.889725838977 7.9827411481957 9.0226319676982 5.8386754114082 13.58844996205 8.6138564743425 7.7484443275251 4.1929484323084 4.9380535862812 8.5433809746661 9.4720014018184 9.5449819878436 11.726762989857 16.857099975345 14.446054263973 6.6285080972917 8.5472981112183 8.2619888805449 6.6998471135955 7.1731593022801 7.4935239247829 18.275685106394 12.446800239549 5.5942558715555 13.749310205158 8.015692832652 11.733631681786 12.226006748381 10.503568036348 8.7906005086467 7.3101766264083 6.800083043557 7.8644295486403 9.0212644184351 17.322070462295 7.4029922500935 13.4900950625 28.549050707956 9.9113966795394 4.8816054912812 10.476277945682 9.4674226453296 10.23456112323 4.6983396582844 6.8392392902157 13.836942126205 8.7734790894145 8.6920627866376 10.551340824048 9.4232226812014 7.9033900772393 5.2270848491256 7.0156033115124 8.9464023783135 7.1301288374352 21.030857056445 7.1146569340705 6.3501361430596 9.107241493205 11.09688811614 12.507373785854 4.2748810386346 4.9828771287806 7.7032596392151 9.7231883550239 15.537401670687 6.5761223154019 5.4257165072136 4.0804821071118 8.1203522616639 6.7587497003002 8.8614260626528 11.30429144585 7.9430632186916 9.2882106034191 8.9983000096881 15.240632563161 8.1046900643302 15.055534408272 3.5051632288477 3.7494426164084 8.3441031417703 15.930857636391 13.946244805983 12.353352849603 9.4443277343319 11.651071648864 21.577355478892 4.4642945757832 8.4281874426013 6.5816895494213 11.898787438175 4.201685975256 4.9749809456162 6.1779707907719 6.1382504721904 8.2841858806312 3.7413809969159 10.006119882093 6.1611176157604 4.0497038435505 7.6409140596417 8.2951353727827 7.3130892571202 6.7221076159793 5.5388540241941 3.8098657842462 6.6706954350574 12.935216220088 8.6440767817453 5.7721389512787 5.2501166806666 4.2297804671787 6.7545846092961 7.96679520668 6.1689137675485 14.288144305535 10.743606069568 4.3563053542733 4.0706393225873 4.7475448297909 8.2714500623683 6.3439141422537 8.1169593925584 30.816334157934 10.432849097962 10.577123842299 5.8932021052379 16.286429266425 7.9948321525111 6.9130218164479 3.520102823495 10.431169669183 7.2914641995511 8.0646412212998 4.9290872909567 9.1708849515359 10.402243484052 9.129765413682 13.060320151555 11.637258329481 8.8683405657243 5.4134355468168 4.3054610253686 19.967187603228 4.6460256681651 9.2392323963398 10.439722455242 6.4333125192759 15.283317634417 6.5778299175251 8.0915556196849 6.507509227053 8.3629766548203 5.4627838529215 4.7800523753788 6.4809713404026 4.0807312346279 5.4734430245952 5.737772963985 18.59479085179 10.590828673421 5.5664660277672 7.1422840968691 5.287435922778 4.6573126633618 6.1782805221881 7.8301715357999 6.7354006596098 7.208466882644 12.002339484179 10.364366161157 8.1484702667558 8.1274655430507 10.023926709455 4.4017798361531 6.8087442108371 4.1448590035142 6.5106203398544 4.0100656092821 6.7785457769532 11.736221702574 9.8241928860481 3.9740456533726 10.077913058356 3.3465721064799 8.8892737246558 4.9219933803679 5.6409601305726 7.7542690559214 13.988106560749 10.37820635827 6.7884907033828 5.159126329298 3.3464328736204 5.0614190204507 9.8290942603929 8.0468426881232 9.8344428397265 7.7961853268665 11.78466277418 8.4731338447807 6.5298973694755 4.5987678659872 3.6005217832254 5.0662107053478 4.9823764563288 4.0403593343262 4.1120650119853 4.1226031267043 7.6817516957242 5.8687090422522 3.6773818708847 3.4329211063633 13.980254366496 7.709047969234 5.0581230570386 4.7543183297802 4.1263229513437 4.4857060487331 3.7957904459326 3.8420958580179 13.423173216025 8.5159774344276 6.5057367169139 6.3167894024216 15.502980950624 8.1820481556334 6.4403356847306 3.518721484497 9.5468780004525 7.6816847800314 12.564499472492 4.408487309832 4.350655141814 4.0422724031746 3.2333680498027 5.8960726106213 6.8596889428921 5.0176181654222 5.2583180434767 3.6707710579193 4.7867448876587 6.87180001408 9.3794860547469 4.2156515396093 11.806173165016 9.6728744826156 3.1794789502817 10.316560813603 11.256474097337 8.1979831360571 3.887147048922 7.7260902731039 5.5013380881808 4.7596654315325 4.8370114534567 3.7451165902046 11.000423404256 11.318654398829 3.643324206206 7.1723351156028 4.9776410123605 4.3248747055075 4.681814316212 3.4016472717302 11.338051529144 9.0246505552337 7.7826958010027 5.348981646712 8.0127449813232 7.3306517485584 7.9469840766575 5.1657619636685 7.7335090339005 10.67485733644 9.2780259165646 4.4852454202062 3.8649455568228 5.2069247588389 5.1481469436378 7.1828114019118 11.389880746915 4.399587626493 7.313970524019 3.0935978668871 4.6924915226568 3.2910950553241 3.6618397502778 6.9639328637511 4.5333950613423 3.3302593518779 5.0876242568775 7.4447293708631 7.1952356358284 5.245848488124 6.7110396971784 4.9681122280437 4.8859851929997 4.6039094121419 4.6409396803961 6.5998444358804 4.818973591179 6.2163935763523 10.412532703109 4.4210798004916 3.747928677982 4.7913838850807 4.6979411860367 13.847419019377 3.6560096666873 10.161157778153 6.3549032379577 8.9349738523677 10.605034792474 4.5148159050291 2.9196066212236 7.5690810973013 5.4913739605464 5.6977447505986 5.2449325544647 15.073055835286 6.3619789245268 4.1051143134462 5.2931950321372 13.482378052691 7.9691441019567 7.3608477425146 6.0578851926796 7.169074833199 5.6160658501777 3.2876362700657 3.6267368486708 3.4151010052065 8.2615413502184 5.2136784626023 4.0621441336376 4.2824938314257 4.5457580915994 5.6965983635685 6.2100450283017 7.1505462338421 4.8545511553153 3.6464185035319 3.2467059297858 4.0787487144316 5.633157146871 8.9879716380291 6.4944109878302 5.4437511358792 4.848350777686 3.7346915160508 8.6885729624818 4.0899002838796 15.239055473261 6.6443296219711 3.3877841704987 9.6116102173332 7.2397053049898 4.3321765201796 7.8394437235891 6.3483565607202 4.189400812748 4.4445889711595 3.7599615209192 6.7517725827553 4.1547829551817 3.6726641756655 4.1447839853371 3.4370564519486 4.1064541159901 3.5075933205614 9.5097967349268 3.3246790125643 7.5496433369831 3.6914279933805 3.924177242281 3.2432512609316 5.6201554523768 3.5891215256093 4.1989429861955 5.8094248715729 3.0595494671101 3.3270238278667 4.4332611877818 9.7827441740491 7.4773307793371 6.1721007727873 3.444264062861 3.6602692824137 3.8901682069334 7.1757468660419 6.2609281252032 6.9379803452555 5.5968039652689 8.675998627869 8.1274737071058 4.2581873825411 8.1290530729043 4.4574981847309 7.9069356379581 5.0165883415862 7.2216037099339 8.386881445506 6.01961988074 7.287999680268 6.821990716338 7.2004098294876 7.8808715245661 8.1424610243139 6.4159229859434 7.3845813910496 3.5989072376195 4.948389767683 9.2009396835695 4.3776839725644 7.4456211652195 5.3861524495199 4.5825683559738 4.6769580354329 4.4144163228784 3.8615331440675 3.8876732287599 3.9772726239802 3.4359719901329 4.0201962670811 11.487464646823 6.1130480020366 9.0244353592488 9.0753880075423 4.004379643377 3.4612624894819 3.7132061745996 3.8459541797703 4.4720751656548 4.5766411882305 4.3800361062386 4.3418227887369 5.2732115462538 4.9604016791566 5.2587949174684 4.9534360969089 5.4111504946827 5.5821332586402 4.8250407703924 4.5749095257252 7.0227619883495 6.8604564793358 4.0491270994854 3.3274379416017 3.6557913003497 3.7731760707492 3.2988787209271 6.1509086960496 4.0864186313923 5.2469457345861 5.0899797114005 27.838832175631 21.703875885052 3.1659763020643 3.6296292074291 5.376786400308 4.2251545730875 2.8855406379853 3.172022406203 4.1691333691588 5.7707050945776 13.138090466004 4.4534880437485 6.2009651898158 3.6384805260072 3.9120070325128 10.692320319501 3.9937440066887 3.8528993414618 7.4263854253667 3.3749261121853 3.3704406573195 5.7776337418945 8.7164734540266 3.8801436352119 3.308789497207 3.3761874633987 4.9997226722865 4.55082765714 3.5653535759879 3.4365807725376 3.4965018918679 3.5830440515047 8.2024407631542 3.4218491864481 4.5893113317334 3.5538468368912 4.3477442456782 3.2712294448883 3.7457851946003 9.7652895695844 3.1649607439498 4.8235161499696 3.4265851428754 3.235890618442 4.052367769068 3.0983886025141 3.3684856150252 3.3850776095158 3.5968199163909 3.4877071860568 3.326775495347 3.2424308080054 6.761306358667 4.0822237938739 3.208392195093 3.5106482863526 3.9552372569667 3.6245169181917 6.0894246577229 6.87859992044 3.5405502323517 5.5675966648367 4.8510830880656 4.9209985688634 5.0550239841488 4.3271155347011 4.0190717242489 4.2523318311585 4.490888909468 4.5445108325143 5.5364900750126 3.7661688449869 4.0720218549386 3.2687544355878 3.7600364449987 4.7355487054808 4.1746429867817 3.6527296114919 3.2953990344331 3.3917775357791 3.0097956352521 3.6575265427423 3.3189141922575 3.5537698578986 3.9029089686305 12.28681428433 3.5885523174636 3.7893840800998 3.7757268355056 14.998572752386 7.8225755863447 3.3769817545941 3.3872669465663 3.4125664983601 3.723975109129 4.0888073155371 33.137417419725 3.2986530362459 3.3149262056037 3.5485201055819 3.5549949699634 4.80950793853 5.2197501569836 4.6116344159218 4.4355677376009 2.9879447387559 4.2223529568326 3.5481156311011 3.220551659706 3.0339482843368 3.3767266772923 3.0133106824982 3.4923315813078 4.824262651179 3.4590432866209 3.4002544290988 3.0058828088261 3.0772955411747 2.9227969289407 3.2885007430654 3.4034135779271 3.3047484601009 3.5912555490952 4.8699130869849 4.4796142197894 3.3050874561453 3.3245993622757 3.4286827506993 3.8384478721945 3.5248106490935 3.2300513996107 3.393040725381 3.3803994123205 3.2995019474424 3.1932829324597 3.1744094285038 3.8628184754042 3.3878105277135 3.9001528376574 3.5188460142061 3.3607601032641 3.5024063710531 3.4605261279711 3.3814432676497 3.4902938785961 3.1517664237272 3.0103670345661 3.3286722958654 3.18075360476 3.0388433752406 3.3744261668408 3.2776576515205 3.4064847553782 3.7922852503515 3.506539582875 3.866663097029 3.5096620512201 3.6093615222706 3.1535512146611 3.3797251197589 3.554781910769 3.254925186209 3.5712642130379 3.3320834369747 3.8441792383315 4.2618881714177 3.4525740954793 3.4916655894204 3.6304376857848 3.4835788204697 3.4531426001791 4.0645047047806 3.7774589584013 3.6478518570399 3.6759433616708 3.9274937278537 3.5547171358829 4.318428479947 4.2088819325016 3.9119192582074 3.7159850936622 3.7436063315689 3.3631576554047 3.5978448007001 3.9792001099306 4.0324013361017 3.7705274068091 3.5454616003219 3.5228948763014 4.617096910389 3.6833303487996 3.9670590259389 4.0753892444105 4.8628021494451 4.0029600553293 3.5899058138258 4.0849438050186 3.7543094113219 4.018950280346 3.5214980320923 3.8423301964992 3.8810391795363 4.1006605346568 4.8465336485836 3.8094711399852 4.8902691197443 4.2205515907175 3.9322819013554 3.7483222540761 3.8125987545241 3.9065510039129 4.1345330503136 4.2790342130522 3.8009085652162 3.9179358983721 3.7619864325991 3.7103290970906 3.8862479540971 4.8891031497657 4.1620294323096 4.1238653932807 3.6494033697699 3.8891952771038 4.1998408643217 3.9190525928668 4.1638865235484 3.9694136411033 3.9291946116913 3.9721089949673 3.9459248634914 3.978657371132 4.7055757914718 3.9515615705706 4.0120114567082 4.0237831597492 4.1787850852583 4.3111592010217 4.2274460216946 4.4986829955042 4.6074519841191 4.4345676654917 4.2834970815938 4.2609277231812 4.7864842883797 4.6591732460814 4.7222892670018 4.5390995738733 4.6848217949593 4.8493859596241 4.580153150624 4.455372992842 4.119848976686 3.8157165750368 4.2018369053269 4.2319733903243 4.1004393752919 4.1128807610146 4.2081099601296 4.3316416716708 4.1776373522518 4.2126660968241 4.3074523284061 4.2798493816576 4.2922937065187 4.3293431018668 4.2697441104832 4.340897866237 4.3465496212483 
SCALARS 50.00_0.91 double 1
LOOKUP_TABLE default