# vtk DataFile Version 3.0
d-2__ created by libgimli-v1.0.12
ASCII
DATASET UNSTRUCTURED_GRID
POINTS 1303 double
5.625	0	0
5.511811217919	-0.146388704457	0
5.676386535709	-0.13519637448	0
0.25	0	0
0.175228502521	-0.179050409113	0
0.326009290428	-0.144330725415	0
0.375	0	0
0.990207725992	-0.114957291708	0
0.841075314552	-0.137634199948	0
0.926498288371	-0.349340723189	0
-0.001071200562	-0.386156929004	0
-0.003317641763	-0.130454088023	0
-0.192720422374	-0.216308252768	0
1.25	0	0
1.175215748534	-0.200562384647	0
1.341115762259	-0.128605193971	0
1.375	0	0
2.25	0	0
2.168494514827	-0.19848886597	0
2.338304607341	-0.128945294536	0
2.375	0	0
1.911268305082	-0.334701951691	0
1.986191885908	-0.110806668109	0
1.838390258011	-0.128853462534	0
1.75	0	0
1.670105949089	-0.197137117999	0
2.986685504441	-0.10889534818	0
2.838723720416	-0.127406828384	0
2.912854264006	-0.329775839393	0
0.75	0	0
0.664572693147	-0.222613872306	0
3.25	0	0
3.168798596028	-0.193682232199	0
3.337828500197	-0.125181208794	0
2.875	0	0
2.75	0	0
4.25	0	0
4.161099470995	-0.193412132741	0
4.332718836325	-0.127723897736	0
3.83511440706	-0.12403687807	0
3.875	0	0
3.75	0	0
3.901908238995	-0.321557035295	0
3.983050435256	-0.106770030737	0
3.665527023987	-0.190866765849	0
5.25	0	0
5.164693411436	-0.21656556845	0
5.338419985376	-0.147288917438	0
4.834321952324	-0.135810575609	0
4.875	0	0
4.75	0	0
6.25	0	0
6.178399669611	-0.137425451145	0
6.356205370496	-0.193853696818	0
5.817814980918	-0.161175429964	0
5.875	0	0
5.75	0	0
6.611939839541	-0.314381537706	0
6.522886280605	-0.104721203126	0
6.75	0	0
6.669178832877	-0.119404962711	0
6.836073690852	-0.177498311423	0
5.39059629209	-0.37339102075	0
4.660917359886	-0.204007052252	0
4.902096977384	-0.356327271651	0
14.897042426984	-0.319128540459	0
14.98121339776	-0.105010975498	0
14.832720105416	-0.123004000492	0
2.669265824618	-0.196872625129	0
7.656019919505	-0.144451020927	0
7.75	0	0
7.625	0	0
6.625	0	0
8.75	0	0
8.672937461928	-0.164309120831	0
8.834289374889	-0.109279841483	0
8.206809119751	-0.294811800109	0
8.187056112549	-0.110869448227	0
8.024316200302	-0.129362764133	0
7.157390904024	-0.111206354394	0
7.25	0	0
7.125	0	0
8.25	0	0
8.125	0	0
9.75	0	0
9.651145885459	-0.185384966231	0
9.827054067621	-0.122428024454	0
9.381816956327	-0.305807769915	0
9.476753337472	-0.101567493772	0
9.327490061855	-0.116748040282	0
10.75	0	0
10.655660803951	-0.196164841752	0
10.830485405183	-0.127989131147	0
10.386748323888	-0.329675548046	0
10.478464938155	-0.108955040137	0
10.328560245085	-0.126395562242	0
9.25	0	0
9.375	0	0
10.25	0	0
10.15270392044	-0.192469144253	0
8.328856990144	-0.128933011689	0
8.375	0	0
9.153857570119	-0.175508527296	0
11.75	0	0
11.660624577581	-0.201812344528	0
11.833823570609	-0.131890823957	0
11.395399221028	-0.337817920558	0
11.481219500696	-0.111845889235	0
11.331881500183	-0.129806070652	0
12.75	0	0
12.669299873111	-0.199190799603	0
12.839534650452	-0.128328673855	0
12.40897914742	-0.340185307353	0
12.485654611126	-0.112072117633	0
12.336727606385	-0.131188239877	0
11.875	0	0
12.25	0	0
12.164627546098	-0.202605127067	0
13.75	0	0
13.669268468008	-0.186168180444	0
13.837322273199	-0.120178339978	0
13.416957459915	-0.319650485848	0
13.487510959619	-0.105281058988	0
13.34010202956	-0.123833443479	0
14.75	0	0
14.66080663422	-0.189613659871	0
14.399926333663	-0.319306441484	0
14.4823067449	-0.105599641009	0
14.334114343934	-0.12250571155	0
14.875	0	0
15.25	0	0
15.158227025815	-0.185762723401	0
15.330441202311	-0.11956675178	0
13.875	0	0
14.25	0	0
14.163960939829	-0.186365139356	0
12.875	0	0
13.25	0	0
13.171786689458	-0.193064330135	0
10.875	0	0
11.25	0	0
11.158129238503	-0.198418008741	0
7.31587636932	-0.171642077952	0
15.3902841013	-0.308450173235	0
15.478958243586	-0.102394874489	0
-0.125	0	0
0.125	0	0
0	0	0
-1	0	0
-0.706889652808	-0.331752981492	0
-0.5	0	0
1.125	0	0
1	0	0
1.625	0	0
2.125	0	0
2	0	0
1.5	0	0
1.488007132967	-0.109900770852	0
0.5	0	0
0.474245721096	-0.130043839003	0
0.625	0	0
3.125	0	0
3	0	0
3.625	0	0
4.125	0	0
4	0	0
3.5	0	0
3.485533411273	-0.107014956798	0
5.67736414417	-0.368119689468	0
5.125	0	0
5	0	0
4.98353533542	-0.118243061674	0
6.125	0	0
6	0	0
6.009467825362	-0.139471566496	0
6.5	0	0
4.625	0	0
5.5	0	0
4.5	0	0
4.481603306259	-0.111052305129	0
2.5	0	0
2.486482293556	-0.110456056597	0
2.625	0	0
7.828740664136	-0.157959666613	0
7.5	0	0
7.497789303332	-0.098817221798	0
8.625	0	0
8.5	0	0
8.493725508365	-0.094448160765	0
8	0	0
10.625	0	0
9.625	0	0
9.5	0	0
9.125	0	0
10.5	0	0
10	0	0
9.976983002093	-0.106037154081	0
10.125	0	0
9	0	0
8.980258705317	-0.095443922293	0
12.625	0	0
11.625	0	0
11.5	0	0
13.625	0	0
12.5	0	0
12	0	0
11.983083448534	-0.113269018621	0
12.125	0	0
15.125	0	0
13.5	0	0
13.125	0	0
14.625	0	0
14.5	0	0
15	0	0
11.125	0	0
14	0	0
13.984735949845	-0.103165953766	0
14.125	0	0
13	0	0
12.987740386932	-0.109238757727	0
11	0	0
10.980033547654	-0.110118532971	0
7	0	0
7.012790729926	-0.096165366155	0
15.625	0	0
15.653391866104	-0.184257106926	0
15.75	0	0
16.25	0	0
16.151956269841	-0.190746813766	0
16.328162175541	-0.125534698515	0
15.827345422636	-0.12109528269	0
15.881623705918	-0.315197408181	0
15.9768075603	-0.104841845177	0
17.25	0	0
17.155473725888	-0.187015736188	0
17.328334720487	-0.12053442359	0
17.375	0	0
16.97978281674	-0.105790715925	0
16.830585534618	-0.124270763258	0
16.892220832712	-0.321708894118	0
16.75	0	0
16.655725821363	-0.19281499559	0
18.25	0	0
18.144056513649	-0.199584109463	0
18.322695877645	-0.133173012767	0
18.375	0	0
19.25	0	0
19.156955168382	-0.212194778097	0
19.332395147696	-0.137501625504	0
19.375	0	0
18.978107771567	-0.118463258117	0
18.827251646435	-0.137822523984	0
18.884674261801	-0.359498065923	0
18.75	0	0
18.648603260315	-0.210400354993	0
17.973004229039	-0.108213471414	0
17.823362138939	-0.124125311933	0
17.87020700187	-0.324156104502	0
17.75	0	0
17.64837652944	-0.187413016584	0
20.25	0	0
20.167288289523	-0.206556633625	0
20.33799343326	-0.133667464393	0
20.375	0	0
21.25	0	0
21.172020853715	-0.201327641466	0
21.340729826518	-0.130206344264	0
20.875	0	0
20.75	0	0
20.839555732676	-0.132066213667	0
20.987710400762	-0.112937783384	0
20.915843633601	-0.342386775443	0
20.669904108595	-0.203936882105	0
22.25	0	0
22.168893714495	-0.194483818359	0
22.337089427477	-0.126591453251	0
21.875	0	0
21.75	0	0
21.840184239699	-0.127666317168	0
23.25	0	0
23.162361450448	-0.215073727418	0
23.335945395372	-0.148199257458	0
22.875	0	0
22.75	0	0
22.83504078106	-0.133126573368	0
27.412614995451	-0.337768305098	0
27.406417478875	-0.760610856776	0
27.663031754041	-0.476449210851	0
23.674319496044	-0.139602731619	0
23.75	0	0
23.625	0	0
22.902876337082	-0.348446434986	0
22.664415839639	-0.19979598046	0
21.987454968006	-0.109075483352	0
21.916658702332	-0.330379709848	0
21.67241042914	-0.19774510361	0
19.984830323221	-0.115851903278	0
19.835879034474	-0.135573032779	0
19.906686139011	-0.351521653308	0
19.75	0	0
19.663378765328	-0.209646647928	0
24.75	0	0
24.672305039303	-0.121865624882	0
24.84054616259	-0.178479133746	0
24.25	0	0
24.125	0	0
24.179559510218	-0.145425217914	0
25.656694723316	-0.141492417978	0
25.75	0	0
25.625	0	0
25.25	0	0
25.125	0	0
25.159224348757	-0.109007087058	0
22.647257188685	-0.476376729768	0
22.872248033711	-0.780455516934	0
25.317652966423	-0.167196322239	0
31.908525182248	-0.237434634112	0
32.248547795208	-0.367887731521	0
32.025	0	0
26.398062594932	-0.327144710524	0
26.335089901602	-0.124890632532	0
26.169730315141	-0.188549564961	0
26.75	0	0
26.662500836065	-0.197477656933	0
26.835401004001	-0.129534360312	0
26.375	0	0
26.25	0	0
27.486869476066	-0.111474770432	0
27.338367230812	-0.130187170762	0
23.816158307302	-0.168335740772	0
23.875	0	0
24.625	0	0
27.75	0	0
27.67023663024	-0.198727549038	0
27.839431305592	-0.128541986375	0
27.375	0	0
27.25	0	0
28.75	0	0
28.666013303123	-0.192953151514	0
28.835335299513	-0.125393524551	0
28.875	0	0
28.41074998604	-0.32692743598	0
28.485854239984	-0.108071323096	0
28.338261561589	-0.126341817439	0
28.25	0	0
28.169650699531	-0.195402875109	0
29.75	0	0
29.656991685033	-0.201213204108	0
29.830700495316	-0.13323291855	0
29.875	0	0
30.75	0	0
30.665605116896	-0.213760177502	0
30.837855425721	-0.139272404211	0
30.875	0	0
30.987248292653	-0.119871959545	0
30.911614165903	-0.362389547989	0
31.25	0	0
31.174363802618	-0.217041176186	0
31.346460135447	-0.143418487957	0
30.400599561582	-0.360265197586	0
30.483280501431	-0.118794220148	0
30.3336351656	-0.137924489201	0
30.25	0	0
30.159375273254	-0.21004086356	0
29.392934647931	-0.331414044449	0
29.48031118177	-0.110263057575	0
29.331777210358	-0.127344913482	0
29.25	0	0
29.160548153072	-0.194064979946	0
27.167334579456	-0.200440763045	0
24.359650796728	-0.20304719459	0
-0.25	0	0
-0.404335947278	-0.221464959739	0
16.125	0	0
16	0	0
17.125	0	0
17	0	0
16.5	0	0
16.478267427857	-0.108008273171	0
16.625	0	0
18.125	0	0
18	0	0
19.125	0	0
19	0	0
18.5	0	0
18.473681471998	-0.115768873419	0
18.625	0	0
17.5	0	0
17.47687846862	-0.103462148239	0
17.625	0	0
20.125	0	0
20	0	0
21.125	0	0
21	0	0
20.5	0	0
20.486446843971	-0.114298370976	0
20.625	0	0
22.125	0	0
22	0	0
23.125	0	0
23	0	0
22.983281399654	-0.116385827149	0
23.5	0	0
23.509214189908	-0.149359691049	0
22.625	0	0
22.5	0	0
22.48467632496	-0.1093719097	0
21.5	0	0
21.488472844532	-0.111208801785	0
21.625	0	0
19.5	0	0
19.482219828947	-0.117572233456	0
19.625	0	0
24.5	0	0
24.525433875838	-0.108080714825	0
25.824234283709	-0.149177038136	0
25.5	0	0
25.498573523516	-0.096586408813	0
25	0	0
25.014769107289	-0.095147895568	0
21.919931345447	-0.741308582321	0
22.160361550711	-0.463896476278	0
26.625	0	0
26.5	0	0
26.482631880244	-0.108512805864	0
27.625	0	0
27.5	0	0
27	0	0
26.984612185119	-0.111680714924	0
27.125	0	0
26.125	0	0
26	0	0
25.990349817319	-0.10847866492	0
28.125	0	0
28.625	0	0
28.5	0	0
30.625	0	0
29.625	0	0
29.5	0	0
29	0	0
28.983089608831	-0.107750428826	0
29.125	0	0
30.125	0	0
30.5	0	0
31.63125	0	0
31.5	0	0
31.494696987447	-0.123712578064	0
23.671261205816	-0.380102168636	0
31	0	0
31.125	0	0
30	0	0
29.980228243528	-0.115525062547	0
28	0	0
[...]
CELL_DATA 2263
SCALARS 1000.00_5.71 double 1
LOOKUP_TABLE default
6.5949327874938 5.8083069532921 6.0076164130437 7.1485697066503 4.9116900360402 6.7056514796678 6.7792946770282 7.9412880115501 7.8912474730945 7.866423942484 7.6167735882159 7.5198021646775 7.130061228357 8.4203526395762 7.1576266299855 9.4959855907804 6.0418526209002 6.5704273052364 5.9824304158475 7.7390440568493 7.6344967601423 8.0698343888798 6.2634804473771 6.8272259802937 6.1321247603491 7.5990140470377 6.3333036881671 7.5348820641264 7.5634252636716 7.4066536192206 7.2391396591288 8.3079624019324 6.0397479527634 7.707915835077 9.4550355291036 9.7579472292608 9.5663378926172 9.4810411159258 7.7821064933936 11.608577139809 8.550611054458 7.7501318437289 7.662525552501 9.5174888550727 7.8787882337384 7.9735203664681 7.9785972825839 6.3487690312221 8.8355214607031 7.8378365844255 11.070345467764 11.482593269868 8.2887935941627 7.3463592588047 7.7930773032484 7.1414141039418 7.3800281776097 11.726521565885 7.3861511969924 6.4544951604995 7.1443798901376 11.832136782483 7.7302077681202 10.011618810066 7.1827854098881 4.7579166376796 5.1318493150085 4.5732349672283 6.589900914174 6.8695010365032 7.5054594949383 8.0373350771279 7.2992836691722 8.0009812196096 6.3992052156567 5.612492786916 8.7895819216772 8.3662464347734 5.9748340177124 7.7430064954327 6.6245661668286 9.2330694062952 6.7068879787609 7.7370779500566 6.3232891684264 7.826718085939 6.4029901824348 7.5754764018875 6.9002533962583 6.8567530875061 8.3054039590795 7.7056362310471 7.7258952465784 6.8734053167399 8.3731483445303 8.9968159359307 9.5432586119034 8.7679564266655 9.4611622542896 7.9287321393029 11.43384291818 8.6256365585937 8.1323860113966 9.9625263327857 8.1603705586865 7.5117828560401 8.1538452680802 9.4455437056457 6.2946117336413 8.2853636264982 11.222307972435 7.3925588654215 9.8703313877264 11.454375311699 7.6625274013504 9.6532645294176 6.7832733843694 7.7813133901384 7.7058761562784 8.0107140226973 9.0773092413693 7.5609471989777 6.616472136407 7.5663842098432 9.5320696207737 8.2171623789659 8.4704923454701 7.3477232520648 8.3327080402639 7.8064449644367 8.0703265932951 7.2271270904213 7.0625774603507 11.867148693001 14.158370309369 6.586377037887 6.5985042253921 7.4218575752369 7.4751949633772 8.7786767198749 9.1981319205972 7.5367104598849 8.325769137628 8.6635572272968 8.6647042040018 6.2139742886429 10.162572375656 8.5649673836666 10.453269332793 8.7000320925852 7.8957074543129 7.1818705910568 8.6171869542011 5.7076939820182 7.0034006502843 8.2706462933115 8.6003239048014 7.8784286222761 7.6887098710228 7.5867833435165 6.7486026792617 8.4567728845053 6.0674477652434 8.8818031618885 7.7333718069986 6.9869290163255 7.7681327261274 5.7874792616591 6.6560734934044 6.2278690114427 6.5682612525619 5.7741466400936 6.7635587204144 8.3598296350896 6.6900531485359 7.5926731511884 5.377559187274 7.8318087323379 7.8246873617327 8.1309858598498 8.2262239636732 7.617069627034 7.5543558936573 6.7754104615184 6.8144237587905 6.7771748206084 6.4762533577175 6.5365392771236 6.4699995642838 7.2199582997533 7.0551052796083 5.3631249717786 6.0688217585181 4.6090006231135 7.8876170987211 7.5979865735075 9.5285481709772 11.25422890736 8.4037578041124 14.009286173871 7.2045283488398 7.3754259439001 8.1807427770789 7.5589859875738 6.7157266736662 8.4058653038219 7.4537438578003 8.7008427708474 8.1672864005139 6.3300183256111 7.4301694001815 10.497044623567 8.6485514648879 8.6091071444413 8.3656468557337 6.8869306257429 7.8907306312907 7.2577401424038 8.679405900528 8.8539800366231 7.286104615572 6.9490258100842 11.09742964061 7.0848066715878 8.7571994925559 6.6445484081384 7.6171469589111 8.7337528287316 8.7247452908732 8.0468492550744 6.7513420472461 6.4029642189314 6.5978740940358 7.3624518900107 6.4622770826702 5.6655989293512 6.8937947906284 7.6214676065983 8.1460899909602 8.1523467801289 6.7426223957286 7.6279518877592 7.4961148977378 7.7845121720405 6.5097695340298 6.659610749081 5.3649047483029 6.2982443081633 6.9110061292293 6.7991174554623 7.124398633148 6.8583448175254 6.5870398063236 8.0155838952105 7.8892256728332 6.3506331114101 7.5047389406459 6.3291854538347 7.750956844135 5.3519157499342 6.7758309653068 6.3101057508062 6.7010655860417 7.1203609354349 8.0568771461331 7.8182923890143 7.4371076422382 7.9310603133946 6.5635892725646 7.3311697159749 8.632407825147 7.3305474223962 8.4461956942141 9.2615159887405 6.2109908868509 6.7779822659501 7.7113786060369 7.4747248519972 7.3196787483359 7.0386884312634 6.7036356489984 7.4288452447664 7.2491763098815 6.9267658344982 7.8034587002765 7.8206526041707 7.5744450233233 7.5799620796597 9.1162892364024 8.380820150336 7.6737067884473 8.9555893665401 9.2027474827313 8.9657147844674 9.1217264541 10.712587150248 10.933304957089 7.7192304778932 8.8230828813753 8.2438989569371 7.9372394812938 8.3717445834321 8.4078538100038 6.6353749696481 6.7321975586995 10.541401697394 9.1415580458594 10.442385743828 10.658814795913 7.8276257786005 7.2238920577478 7.769683028486 7.2846348074446 8.2520967472253 7.4482117481123 6.6985365266596 8.5881233612466 8.710058708792 7.7525374018522 9.2451818524049 9.9234950687401 4.5687478989648 7.9873868435317 8.3875694162964 7.6668421078089 9.3277386367361 8.2879028893127 7.5652008389891 12.550673327556 12.118839421208 6.8885380282854 6.9845550397586 7.6667534525455 7.5099401096623 8.019575169485 9.3675304850701 8.6995137562155 7.5325535451345 8.5541626754922 9.3370729473315 6.7602614524278 6.5490314612686 10.837006262609 8.6044698568153 8.4353422327388 8.9863226771479 7.5674293428076 7.2231791862201 7.0585808654265 6.5236970726246 8.7166911739396 8.3644446609666 7.2227066488106 8.2495769976122 6.9195769338102 7.4094818436974 8.8379928838106 8.5195695001342 8.0862430522145 8.0991987125159 7.5825853897406 8.3685859947354 6.5241900334617 5.8769674563356 7.2262101791339 6.5325278669202 6.8989536342271 8.0593664833998 7.9858794445556 7.7247744036376 8.0053422148456 8.3821573206849 7.7351137308951 7.1917637809772 6.7005767388931 6.8518829249082 6.7085047568825 6.2996386350167 6.6391754645989 6.5902015997327 7.314814904981 7.2501370713263 5.5101912342128 5.8492928507525 7.2818743032428 6.8493705443509 5.985640417658 4.6523067834571 6.1098395589769 4.9010311888581 6.2111319620896 6.9164972216252 7.3686213725207 7.7744285081175 7.6935950598602 8.2383472644872 6.9770377231553 7.1256846344725 6.2219558704519 6.0000304777611 7.2788287384125 9.8028246567332 7.1001881675338 7.7728211958468 7.8686866432223 7.3185008405468 7.528559950856 8.2747840150598 7.6228187560308 6.4054747335643 7.6415145118674 8.4840626645841 7.6606088653656 5.82508444043 7.2983545286541 8.7954933003475 7.9725803017688 7.8649966395816 8.9236964502725 7.5183014708732 8.8861056132387 9.6716590498431 8.4669171136985 8.5744652712833 7.5384677199719 9.0073464321075 7.8036042600865 7.7211364578216 8.0477182799659 8.7535367913415 9.2602164319986 7.9120683278695 7.508733829122 6.719384570373 11.100910438211 9.078998959244 8.1572080147809 8.1430188195594 7.4234382547125 7.8943790428277 7.2103883975882 7.2345374084629 7.9706691355997 8.5655860428383 9.2450894820315 10.601137420748 7.4311205627589 6.7041004754684 9.4349187426009 10.678113308196 6.4171527339902 8.6869743045597 7.2010056043528 7.9847376936093 7.3495055883489 10.234612708018 14.465489670701 6.4688190258821 7.7907245810128 8.8933986240321 8.1209912962593 7.5466574202147 9.6940549775685 8.1168625971929 7.0062248767276 6.7031738420644 9.8389770196293 7.7517733317792 6.740756019581 6.182043147166 6.7090555965648 8.8556140392358 8.1692989872648 9.0667834038819 7.5534109958626 7.1299878754641 8.2742495984314 6.8788474481454 8.2403208612212 8.2523393497566 8.0035939029489 8.6323545626854 7.4219403774266 6.5028238037744 8.1401372244147 7.6055480422981 7.8299260067554 8.6455437527234 6.4023725447841 6.1272563373861 7.5235453320455 6.5717605588077 7.4081309724039 7.84241216274 7.1297612595351 7.9340999790785 6.2346003799488 7.4928942155856 8.3598117408021 7.0190652802257 6.2508080875661 7.6331280118069 7.0105237923132 6.4763679032438 6.4745981408576 6.3918630898392 6.5920347465865 5.8844173166507 7.3791166076664 7.1303057194404 7.9617161333571 7.6970789424164 6.5781369410904 6.0542864914405 7.1957791388319 6.2598255591283 4.6297948644905 4.575906243115 6.4643575102419 6.0815248746675 5.7419562773061 6.1229279077236 6.9653817109051 6.9533574933165 7.8924010104731 7.8748673845302 7.7192250675224 7.8100437227428 6.9946547843016 7.3956484959153 7.639108313319 7.805587078971 8.705451389826 9.5602062358826 6.2295827033333 6.3020560241388 6.3139346254646 7.7308721874723 7.7881188404033 7.8893411253839 6.2347442800773 6.3081181833406 7.6219079606111 6.5263314796311 7.3615634969675 7.7285385201415 7.3848174157867 7.2896859207493 9.1971255085474 8.7939646845188 8.5921455855133 7.5760196610013 7.4621399681658 9.4344251078179 8.7056727041891 9.418019103611 10.714008778225 11.493005466944 8.0499514013362 8.2138542063897 7.7262925884595 7.737455474703 7.9176065631079 7.9477521721615 6.5472525756754 6.6226260852807 9.236311468313 10.16019879871 10.705692702564 11.376897434389 7.4768344746511 7.1572198225211 7.1776886452775 7.1726334352987 7.8522353146787 7.3606561095273 7.6662769130409 7.8985924822455 8.0097808450053 7.6221036156841 8.2243007004001 10.436482881918 7.9430176487237 8.4723608159446 8.2070319776185 8.4749110617918 7.6939553655018 7.284724582716 12.200422694333 13.477185189991 6.5132710011683 6.6972328176694 7.5607388058054 7.5756770729662 8.5116889539817 9.5900108980193 7.7941587964274 7.8095889521721 8.7433618226422 8.8726547138314 6.3717046813105 6.3221743848114 9.087932017783 9.4165141461879 8.4333066396187 8.8983314132746 7.7680850946762 7.1882934664846 5.6109906538731 6.6654666359616 7.8239471196651 8.5236903555281 7.5710454219803 8.0241809012519 7.3415661800456 7.0616290192262 6.5174595864181 8.7216950563311 7.8305537764565 8.3870634750397 6.2423566682562 7.8520260743951 6.488289656419 6.0195004190279 7.0421208465771 6.5456791048331 7.3351407990654 7.9063740121559 7.7051077357306 7.7989545286322 7.9861534680797 8.3716581448836 7.2443854981467 7.3739927605965 6.7254963979026 6.836673651573 6.4029205417975 6.3478196085417 6.4789227485751 6.5221094393802 7.1459112031324 7.0994852782135 5.5601132713764 5.5486119134027 6.1502161435413 6.1374034772293 4.6662508661971 7.3507518353196 6.9448931034609 7.7308643252376 7.7445363569073 6.6215636565968 7.3279823470353 7.4081590772539 6.3867990688419 6.2238517562488 7.3366825638564 8.0895204600925 7.4586383199958 6.4288629974149 7.1551518644562 6.2388259752444 8.519111556928 8.6601407916101 8.0863501338973 9.0623367299192 7.3341717688008 10.250566221783 6.6820981696956 9.112508207955 9.4616415631073 9.330164601306 7.3259766747908 7.4584816196167 6.9696130548114 7.8618345458448 8.5395127735967 8.1192740812553 6.9373099191791 8.218532034176 7.5514533917433 9.6148345444985 9.3415250091005 8.7338731190345 7.6932065569313 7.6638352246566 6.7811027522873 6.7313152939123 6.8922004397946 6.8322861152868 6.5703415296528 9.4741284882542 6.594018859419 7.7022653245305 8.5776498617643 7.5355068824424 7.275545715407 7.0316701260974 7.0460027289048 7.4952713972468 8.0502271874946 8.8516090063809 6.4150011037534 7.0523134497198 8.1964712161672 8.690638073545 7.5357416090424 8.4031402025023 6.662746743819 8.6942209584601 6.7365541533969 8.180667503936 8.1640124998758 7.078111403199 7.4171956182302 9.5045898753957 5.9879702783902 7.4709841058758 7.481854805874 9.5397495633802 6.5823242051304 6.8011406412419 7.5680988621844 7.7163696415812 7.5520890586724 6.802024256058 6.4531831090805 8.496677245323 6.9562830178027 8.4095264912551 8.3538927654285 6.4008437310675 7.0516228327868 4.9431911714237 6.2166256409956 6.2176672528107 5.2380158115958 6.1880542690877 5.9286540781918 6.710202803815 7.0825378558447 7.5178410712071 5.4742500784181 7.9911219134075 8.1134520557626 5.9360093484908 7.6879772494739 7.6574364077727 7.8237076650519 7.6564232441903 7.8373919330058 7.3020295932818 5.5463613672064 7.4949778716338 7.4483881739029 6.7898132060864 6.5320703164365 7.22185226388 6.461658285848 6.7150168311178 6.2720476198107 6.2259043290158 6.0127721255581 5.7922958720085 6.2099251454317 6.487285908487 6.9512979416202 7.1946961341477 6.7212231353045 7.9549487236525 5.9897339309728 6.3163771913329 4.6609814128882 4.9493565320351 6.339223270482 5.1303391610414 5.37842323869 6.9583386311515 4.7996172988282 5.332637113025 6.0250607507298 6.3730400110325 5.5892647524497 5.9224526218192 5.6841975605002 7.5146628483648 5.7675754690881 6.9668936975424 7.394632443354 6.4809375925128 6.5922500138924 5.1506176383607 6.5802969976603 6.1548672190916 8.6468374663128 6.3880480596581 6.1250816121177 6.7532024317232 6.8890262582585 8.2520690119482 6.4339511420973 6.5564664568182 9.5552016287761 5.0281352070655 7.9835212422172 6.0682483430982 7.2573413886186 6.9269985799283 6.820146298566 7.0247473592606 7.2144747162417 6.1660920610736 7.434139365821 6.750268935103 6.0630929855106 7.7270147506231 7.3393065543765 7.7191756337318 7.8238786069168 8.0367202320519 6.936239126067 8.6597489172552 7.1961534044173 7.7655601081234 7.167091253609 7.5831507174491 6.3676824522115 7.6850647166617 7.1884665072446 8.4472844786301 7.0590575899215 9.4740541112673 8.4850937056828 7.3349232455963 7.4042179583399 5.9694607101914 7.8076383511772 8.2805037070605 7.5610002157597 7.3168474934244 6.1166336777504 4.7590187356638 7.2438971476159 5.942871773502 6.8258331063114 6.5162314416512 7.6792435283692 6.6193886374884 8.4062043911514 9.9990051981193 6.334881828224 6.8733362275645 7.9378906870739 7.1933437953035 7.5228759816577 6.305246450741 6.7806446799247 7.5149089809977 6.7043629516203 7.2657321508369 5.8573866759452 8.2200707117152 6.6646560339406 8.2233022913225 6.5400600050445 6.5916361780122 6.8762529832008 7.6868354721621 6.4447304106274 6.2288771607838 7.513199801773 6.9114522727614 5.9624764317948 5.3749842118777 6.8423032200264 7.5203719929426 7.3724211306154 6.4496162706987 6.6198210264877 6.3436645379912 8.4886863244042 7.5331098791664 4.8710743167344 7.0947506158574 6.8361180247782 5.0819482837304 5.9992033491978 7.354155367257 5.5286481584854 5.5790341707168 6.9229371985014 6.5127286903937 5.944071485839 6.4098840902127 6.2336150701766 6.9516806372794 6.3276527948545 7.0963307216706 6.7457460389142 6.5257148070219 6.0203376503853 5.7154321999307 8.0157073990696 7.8328131943937 6.460696960437 5.9085136436465 5.7821164582652 7.1197870787867 5.1150404838125 7.098635179558 7.6850088189681 5.765598926099 5.6209211788953 5.9128177889994 5.3136024881706 4.9716509029277 7.6774968486484 5.8210130672988 8.2909009360009 6.2726709209628 5.7949104772347 5.8291547280157 8.1314116588293 6.4730194568735 6.9496009437843 8.1590094695803 6.4614029462011 6.2131866506756 6.8930671275891 6.7191417678691 5.402939153816 5.7151320834751 6.1970950938396 7.2934890092784 5.1179590386699 6.9867627590695 7.0397703743434 6.6160849026166 7.0392417989459 8.4903694615518 6.869115042925 5.4061470015555 6.7263796468005 6.8281134218873 4.7133041015828 7.8301390475324 6.2970600281011 6.3548899605207 7.9342692047241 5.1744779938873 7.6976335174802 4.8787178392529 6.6239548354592 5.9657258919904 6.6005954498659 5.4185292940667 6.5609611027625 4.9576548257016 8.0612902944459 4.5688231762208 7.1928118882749 6.8263937685812 5.0479461610318 3.8150878175501 5.7013419366137 6.1971074075931 6.5566557654371 5.6239898619634 7.3680740546791 5.7470063113308 8.13760052782 5.5424808326336 5.0680386095376 6.6173464537687 5.4645379335887 6.1080522353024 5.6489188782463 5.9035128954284 5.7681186221845 5.4941530182508 7.358045464627 5.7739945448374 6.5854188177895 7.5131038290077 6.2001038430178 5.3003140659955 6.1399768688907 4.5098639701302 6.5495033450497 7.067337466374 6.5782419457783 7.0034373064863 6.1719259941145 4.5929785949231 7.2192586265115 5.5540675453339 7.0030691451532 5.3117148722928 7.1650850527571 4.954265722561 6.8239323410636 6.2163837628994 5.0724798624148 5.4870503890356 6.6418980500179 6.2114531090971 5.5066421029149 6.2587250616681 5.4643829268308 6.0475671782027 5.4574622320742 5.6071552108284 6.6942668896428 5.2761287541529 6.2663987710008 4.3512466761743 6.8998117814241 4.8655809908698 6.4915587307856 6.190436806824 6.413176037284 5.9825068478392 8.645139152701 5.6036237431386 6.6216122331992 5.8891684725395 5.4012028017457 4.6859925737457 6.1077910725081 4.7432031416544 4.5963540810084 5.1721952663696 4.8445936652184 4.6065805693485 5.2675178924295 5.4352864281641 4.0164489446427 4.751798768835 4.7220175765426 4.6211415746511 5.5772577735933 5.5128999261794 4.9739519808385 5.3015923574517 4.6557583202261 4.8541204304967 4.6754100743596 4.7920203320751 4.6463283563709 5.593491233375 5.5269817188087 6.7593847411639 6.0950220684791 4.6695724222529 4.9728549211742 4.6796004905763 5.6270063321497 5.1652862265287 6.382268665953 7.3354694029217 7.2316072447704 6.5803137319689 5.0234417672231 6.3808550880356 5.7590351567969 7.3293126899918 5.5213906953643 4.9636251737245 6.9170373538652 5.6326632353625 4.8263916134012 5.7677352552483 6.429034523525 5.1119508783133 5.1588433826964 5.7611976138956 5.0664425462482 4.2974884167383 5.1887337934734 4.8226119852725 4.7873836805914 4.3182054149212 4.1737077722233 5.3375713517014 4.6232587305425 4.0631457848784 3.9399605263805 3.5888594981642 4.4044849989791 4.5161098608091 6.0734863915519 6.4793872493653 5.3939641431332 5.7316114357174 7.1924106186696 4.871311209771 5.2676179494191 5.3488126731345 6.4598040337982 7.1245278961821 5.0142729467481 5.1118851767462 5.6468205841735 6.8430189476116 5.3830211691987 5.1608987727563 6.6355591899623 5.5599074585095 4.5010794304647 4.8277018551844 4.6701908455874 4.7115600269304 4.0834997374928 4.6522978013664 4.14304656768 5.3312203425041 5.5552526335636 5.5374652078169 4.8218138776858 5.9329853691557 5.5194378667107 5.3034701910297 4.7656541341667 4.727118825288 4.6741426311455 5.5111874463678 4.8398495839869 3.8269434228221 6.0337843167002 5.5337340625071 4.9842392112816 4.5756605661515 4.8948281059718 4.228686232009 4.3796685773662 5.2460591817206 5.6429615088004 6.1535519820229 4.2916475927728 3.9240041420985 4.4470373400193 5.1130491124924 5.3016212412651 5.2107939219165 5.509260949203 4.7250795845473 5.220421562135 4.5077333775546 4.4620705147239 4.1615378615231 4.3954543103405 5.1519947638095 3.9882065105359 3.6679346594332 4.5273063715347 3.9202224259831 4.0884005111552 4.919003208238 4.1057175894463 4.5628397405063 5.0825250089745 5.4840772739511 5.4163330341408 4.8461038497522 5.4738816282076 5.9735724788957 4.9334745038721 3.6357506073943 5.3958545558541 5.3819105686748 4.656866915842 4.2218528384053 5.25048831741 5.1593491826869 5.1423307681858 5.7177276294017 5.0940672929823 4.3933438366166 4.9298466764414 4.2378191632329 5.5969446662304 5.5789432007148 4.4504484210452 5.2705951318381 4.7159257640764 5.0185767638529 5.3289974799174 5.7132302661088 4.4538666059771 4.5088746625944 3.7770549914541 4.3681987588966 4.2993785444311 5.5161353817355 4.6323611822194 5.3165432913977 4.6197689109984 4.1486151307058 4.9260775779079 4.3664623136504 4.8222058023497 3.9672858186528 4.0901830141306 5.3248681054488 4.5750804874656 3.9714398564773 5.3036489473483 4.4848530871689 5.1590598106114 4.2571517068383 4.5911480492331 4.7416816449039 4.2416296706009 5.1800939929156 4.9035681013142 5.6537811769281 4.9651561327089 5.2880593402411 5.2034800420047 5.4640198980839 4.6691176192925 4.646906470762 4.6610673310329 5.4282052398826 4.9558567531396 4.3450146811961 4.137728923831 4.3524916836258 4.8580297404317 4.4208899297867 4.4992496642937 3.9989561861103 4.9186803123795 5.097595683584 3.7263929253948 4.1790467931324 4.9534968860082 4.1573960713732 5.1887488909956 4.4840567390844 4.1310187697246 3.6716228335134 4.4509899768811 3.6848979882639 3.8474241620681 4.3256188765622 4.1912978688037 4.4491492373898 4.9430516547163 4.4562024083973 3.8260765469838 3.9428324654235 4.0841764600477 4.99