# vtk DataFile Version 3.0
d-2__ created by libgimli-v1.1.0
ASCII
DATASET UNSTRUCTURED_GRID
POINTS 570 double
14.5	0	0
14.25	0	0
14.386963504964	-0.201738469428	0
22.399299936458	-0.310870122736	0
22.129824335287	-0.229914148082	0
22.126320781198	-0.518791771445	0
8.472303742627	-0.591754876635	0
8.780507935475	-0.76092407121	0
8.82173151259	-0.349253271447	0
18.663262297679	-0.667179415955	0
18.934786529245	-0.453308328646	0
18.636898038907	-0.29588182328	0
4.016904362632	-0.85330676142	0
4.076038737616	-0.331410355179	0
3.713721571226	-0.470767763626	0
1.89953779852	-0.269343012166	0
1.633800503821	-0.203067612233	0
1.644492760828	-0.441295523531	0
4.368408037607	-0.250833874131	0
4.337474161742	-0.544420985055	0
4.67745607622	-0.378433532554	0
1.406172533733	-0.772361039307	0
1.913288206557	-1.218576310882	0
1.90687689783	-0.651895683444	0
2.5	0	0
2.25	0	0
2.347047126858	-0.185539804102	0
1.374000926997	-0.300418771701	0
1.25	0	0
1.114902662369	-0.201591505098	0
1.067401015567	-0.470108640981	0
5.75	0	0
5.699780065382	-0.324747799653	0
5.924584257371	-0.172748359932	0
0.883560935405	-0.231136840652	0
1	0	0
9	0	0
9.117836368049	-0.253904480787	0
2.625577516194	-0.346770599322	0
17.859079774019	-0.943547525024	0
17.535029634209	-1.703182852412	0
18.338018094476	-1.366069799339	0
19.932263871771	-0.826489183604	0
19.881635677668	-0.346204516721	0
19.622287080959	-0.573770479943	0
1.5	0	0
1.75	0	0
23.25	0	0
23	0	0
23.109690227386	-0.220340974338	0
2.75	0	0
2.142562771237	-0.172460438312	0
2	0	0
23.332392704446	-0.202507275941	0
23.5	0	0
19	0	0
18.75	0	0
18.888143078348	-0.195773419804	0
2.90152418742	-0.185685383897	0
7.612175045312	-0.180627982114	0
7.527150943175	-0.401430797998	0
7.881917737402	-0.30462800112	0
25.630635194756	-0.512020961038	0
25.243766894324	-0.80097755811	0
25.758031115142	-0.952821630144	0
3	0	0
28.84859809239	-0.201276387394	0
29	0	0
28.75	0	0
4	0	0
3.835807353334	-0.199536243303	0
3.106904732949	-0.178783649348	0
29.25	0	0
29.092446172194	-0.305987136665	0
13.5	0	0
13.667851890428	-0.185102765244	0
13.75	0	0
3.75	0	0
14.407363653886	-0.441423674912	0
14.125469935998	-0.279652141152	0
4.25	0	0
5.061980176718	-0.407989246181	0
5.335512032876	-0.269401530321	0
5.113979852892	-0.173834924157	0
11.882046000841	-0.812345557852	0
12.478640631525	-1.146569360669	0
12.244190771573	-0.565936619511	0
3.633270844505	-0.195395238442	0
14	0	0
18.378272976509	-0.514977451159	0
5.5	0	0
9.619519097921	-1.16461851757	0
10.030576753886	-1.587265312651	0
9.961661342999	-1.070235523667	0
5.25	0	0
5	0	0
13.157975569138	-0.830425793913	0
13.83833027638	-1.238601004239	0
13.671302359608	-0.710707966059	0
11.325917093147	-0.8366783502	0
11.612143285947	-0.506264798476	0
6	0	0
7	0	0
6.83842404292	-0.188923754932	0
7.11236984822	-0.391746146843	0
6.631875629497	-0.169178192832	0
6.75	0	0
3.21002197083	-0.595267231049	0
3.445510026908	-0.608065324465	0
3.362318141622	-0.306501255187	0
6.120159502895	-0.164221934939	0
4.538525595924	-0.906226152762	0
13.233775457127	-1.737244787017	0
4.5	0	0
16.138065841822	-0.472802517973	0
16.126746690205	-0.221608117926	0
15.859319180798	-0.326402762318	0
26.080401003391	-0.227842452866	0
26.25	0	0
26	0	0
3.019224421113	-0.401469974918	0
8.234901607028	-0.35771789179	0
8.518285578354	-0.242327591839	0
8.328777073389	-0.153008859619	0
7.25	0	0
7.400656881666	-0.195280611572	0
7.5	0	0
5.385509485898	-0.709154879541	0
5.948697127931	-0.745234910621	0
8.75	0	0
8.5	0	0
8.25	0	0
2.214249105773	-0.404278959534	0
2.896561357202	-0.792481120253	0
9.25	0	0
4.920911116561	-0.192028847294	0
9.651670336652	-0.200847798694	0
9.849824537955	-0.19917205686	0
9.75	0	0
10.095049354068	-0.315754204277	0
10	0	0
3.25	0	0
6.738406513564	-0.710129601907	0
7.121614580011	-0.943026074581	0
11.345829942703	-0.314788260019	0
11.25	0	0
11.104427225455	-0.188863495516	0
6.052412255932	-0.372556729023	0
6.373371846535	-0.274163514827	0
10.25	0	0
10.380281579003	-0.241092027437	0
10.5	0	0
10.75	0	0
10.909079077441	-0.189427130481	0
11	0	0
6.25	0	0
6.5	0	0
4.75	0	0
3.5	0	0
10.672815698565	-0.318467932684	0
10.772487906066	-0.787092734739	0
11.020900486567	-0.439266778492	0
8	0	0
7.75	0	0
11.5	0	0
11.619450354736	-0.231443672836	0
11.75	0	0
8.139317726831	-0.163309591658	0
12.25	0	0
12.158949464947	-0.235415698299	0
12.412455385193	-0.275030800337	0
12.929165084344	-0.221336108042	0
12.686337592177	-0.258437422252	0
12.900449535554	-0.462768612232	0
12.5	0	0
9.405755833308	-0.325979504745	0
9.111697192308	-0.594170467817	0
9.457257345083	-0.753685223931	0
18.101369157139	-0.618560521812	0
18.336839281097	-0.861122419318	0
10.385948631267	-0.570640149046	0
9.5	0	0
13.411260455969	-0.342646276848	0
12.643108055516	-0.590179775368	0
13.137744715761	-0.195204172124	0
13	0	0
21.25	0	0
21.358341816502	-0.326561417551	0
21.5	0	0
13.816492716597	-0.40394453634	0
20.25	0	0
20.423452336785	-0.313445603959	0
20.5	0	0
17.789350393153	-0.390447709085	0
17.987794057246	-0.401472255242	0
17.881276545163	-0.206424156589	0
19.564465692234	-0.270867872644	0
19.290725118801	-0.49926248604	0
16.392319441256	-0.29915360323	0
19.443730892406	-0.923508713428	0
20.457987075478	-0.803203365193	0
20.167450719332	-0.505159975143	0
0.103762538371	-0.253013629949	0
0.267057015134	-0.483604909932	0
0.374713194419	-0.2320817565	0
13.25	0	0
17.415572543912	-0.230682214253	0
17.5	0	0
17.25	0	0
18.108153655084	-0.208141099276	0
18.25	0	0
18	0	0
15.75	0	0
15.544586046819	-0.246453491997	0
15.122708481244	-0.193620038745	0
15.25	0	0
15	0	0
19.75	0	0
24.149237782749	-0.319013340846	0
23.842766599446	-0.577371105011	0
24.183995039967	-0.73159476451	0
13.871646321742	-0.17394291424	0
23.862588150518	-0.245417872715	0
16.84024277193	-0.203626765466	0
16.704049384397	-0.435508179396	0
17.112673188265	-0.38804641709	0
24.75	0	0
24.832880292394	-0.290571430318	0
25	0	0
16.40158555625	-0.755912194683	0
16.850299990829	-0.757941865332	0
17.75	0	0
23.567455674596	-0.325197491724	0
16.25	0	0
16	0	0
22.645812614293	-0.197864648876	0
22.75	0	0
22.5	0	0
16.75	0	0
17	0	0
24	0	0
26.914424714815	-0.337869958787	0
26.621963281699	-0.624626679172	0
26.977877660759	-0.778408201088	0
26.622424322919	-0.264588309935	0
19.34462271879	-0.199329831305	0
19.25	0	0
19.118057075065	-0.225686869553	0
19.5	0	0
26.75	0	0
27	0	0
27.5	0	0
27.604422363523	-0.298869962794	0
27.75	0	0
17.650384190064	-0.227839036584	0
18.343198956448	-0.236734208617	0
18.5	0	0
24.25	0	0
20.143897114391	-0.233773711865	0
25.5	0	0
25.25	0	0
25.344389320279	-0.31693710653	0
21.059546193318	-0.24845941382	0
20	0	0
25.842927934822	-0.248287716678	0
25.75	0	0
25.613904645132	-0.216025146631	0
21	0	0
11.763551406169	-1.481607093928	0
30.981104050195	-0.5526690913	0
30.873880294509	-0.217692518774	0
30.706626759758	-0.34945139905	0
20.75	0	0
20.85240828135	-0.178025243856	0
23.75	0	0
20.66289882074	-0.189089155251	0
30.204950808504	-0.791758966623	0
30.715535843381	-1.149995259266	0
30.543724897762	-0.572259098027	0
30	0	0
30.180216671806	-0.343473673313	0
30.25	0	0
23.229584388362	-0.458653998547	0
29.5	0	0
29.623391954444	-0.322069028408	0
29.75	0	0
21.618913855927	-0.233585823579	0
21.75	0	0
29.348490380579	-0.521100538161	0
29.36294710412	-0.230601226356	0
22	0	0
22.25	0	0
28.25	0	0
28	0	0
28.129259193923	-0.314252106503	0
28.44374413871	-0.484576386004	0
28.100199615755	-0.812038297775	0
28.649230646972	-0.871769248311	0
28.618403654115	-0.227691192115	0
28.5	0	0
28.387848605749	-0.205892081491	0
29.054768525933	-0.708603081552	0
29.344906532636	-0.846887322836	0
26.327430876245	-0.35930637997	0
10.349120516034	-1.04150119828	0
10.894920134778	-1.514321070539	0
24.59640839418	-0.191760546865	0
12.75	0	0
24.5	0	0
13.102881121377	-0.411296235356	0
25.099388239946	-0.214879887129	0
25.97986022697	-0.52841375324	0
24.398993403151	-0.196312410538	0
17.860840746535	-0.577367743328	0
17.566481510048	-0.529340016102	0
26.5	0	0
16.637148248735	-0.188015807345	0
18.183918302467	-0.396443618316	0
27.159348252167	-0.205297590358	0
27.357530053515	-0.198815038154	0
27.25	0	0
15.060354649709	-1.112587998155	0
15.51532665618	-1.043792149387	0
15.178150912169	-0.713100616689	0
10.051363365948	-0.719159376333	0
14.661248691948	-0.27865166374	0
14.75	0	0
27.868836823455	-0.217301839861	0
31	0	0
30.75	0	0
-0.020273477909	-1.415389842481	0
1.054972770973	-1.487485199502	0
0.512583677021	-1.0438154777	0
0.75	0	0
2.361419414365	-0.794513604096	0
29.890297721653	-0.2433406165	0
30.473599299501	-0.238575611274	0
30.5	0	0
30.660802173874	-0.161931182737	0
28.783812899585	-0.467926883932	0
4.937022539393	-0.72440615077	0
6.696914540879	-0.380672503721	0
7.434272221796	-0.695675918868	0
15.339606453815	-0.166204802571	0
15.281953315711	-0.388999642276	0
11.893544445085	-0.335972898148	0
12	0	0
9.753796445798	-0.478866225926	0
7.720012958977	-0.638314519759	0
21.871398197179	-0.313006985103	0
21.615176662754	-0.521922347305	0
21.856785525528	-0.665128848631	0
20.792152536902	-0.448319093295	0
21.109577821412	-0.527879642114	0
21.360297691811	-0.734200004244	0
15.547854961707	-0.580173571081	0
24.496861814148	-0.467031445896	0
25.067351422649	-0.463427753535	0
24.81263825963	-0.684738154192	0
22.865620821195	-0.218348593093	0
23.443705587002	-0.773171720633	0
27.277617447467	-0.489224417775	0
27.863714790534	-0.471681393437	0
26.239117668995	-0.863279739365	0
29.896797054636	-0.547765129844	0
29.612773839625	-0.699757135752	0
29.867172666547	-0.87444432816	0
29.610354212963	-1.521444655905	0
29.59548165142	-1.071765512911	0
29.115129171034	-1.220660174798	0
31.345359428525	-0.458952144926	0
31.144859415042	-0.241304201582	0
15.919565295974	-0.746550096707	0
16.063006820294	-1.289595303187	0
16.5	0	0
14.900855313538	-0.178071167744	0
14.161016743654	-0.72559708689	0
19.011498044983	-0.834202892304	0
16.760433281999	-1.263698818643	0
17.280361389946	-0.931704507314	0
-0.627742252535	-0.296285438777	0
-1	0	0
-1	-0.5	0
0.625738545692	-0.228405936136	0
0.5	0	0
3.313957665883	-0.865581185485	0
3.619156095452	-0.800599314657	0
[...]
CELL_DATA 986
SCALARS 160.00_0.20 double 1
LOOKUP_TABLE default
6.6192974675188 6.6238735259735 6.5252270267462 5.8393206228638 5.1711929335715 7.0463566909755 6.2145800326265 4.9053495251746 7.4075671244957 6.9698220302246 6.5121648203376 6.7980209414169 6.8202954069409 7.5655128520133 7.4600750305998 7.0108855012617 3.9559376945073 6.1954724799588 7.5539857102148 7.4997016846143 7.3817214070359 7.4626491237118 7.1970041193399 7.3267559339033 7.523449481899 6.9350915938164 7.1606947912482 4.8964186529523 6.8231452990219 6.6637509691066 6.3959136843738 6.8206771052095 6.880407597858 7.0547643233428 6.2788199283547 6.7979552448609 7.0221033014576 6.5139691486978 4.8835242347084 6.1830495517439 7.648483431778 5.7181350545604 6.8637931440151 4.1342812768715 6.3970031576755 6.4754544817511 4.9846222901463 5.5595261132033 6.6774611198078 7.2318164485445 6.6356034799962 6.4058934503861 5.0901593743417 6.9793709092826 5.3899213286611 7.1346547250314 4.0090962443395 7.5877799377503 6.7239858216106 6.4905216557099 6.7487372515535 6.428982871638 7.8304946572303 7.9828525628972 8.3750251262238 7.7820828353368 5.5746586440568 5.4997181329273 7.6214565615807 6.226671264887 7.9671183789792 7.4458746075999 6.9802374838958 7.5279837106265 7.3123639327982 5.677174421244 7.8135409493278 6.847470667386 8.2433097494586 7.8554017439861 6.8535261835317 4.9878692195445 6.7586171447865 6.5426792285699 7.5982477801666 7.9551562160484 6.9202431529399 7.4441266354028 7.5388587855857 8.4519993476406 6.5449921520496 7.0979795189028 6.459254175564 7.3258697752172 6.440964315778 7.8537071285205 7.3602894937604 7.2424397080367 7.4152808171502 6.7965943875252 7.4717733314293 7.6069409733523 6.90185031131 7.7112689161044 5.8158904916815 5.2852078618738 6.883462617994 6.7216632169838 6.0216189002609 7.067249483435 6.3489361140478 7.3562445359229 6.8614338340724 7.4659274376462 6.5074666815624 8.1539564727725 6.8330286761266 7.0151705666384 6.6245738442502 6.7029915262666 5.6651963650918 7.4106995247773 6.3541736993397 5.9913605855105 6.5958409082238 6.6263756690175 5.8842230345094 5.7933065403705 7.2241160476377 6.2003729546664 7.517445070802 7.7169233967705 7.998708720272 7.2404562461684 5.5576895266922 6.7250830843784 6.3443895315176 7.2113549986339 7.6789684764786 6.0321194584449 7.073988226522 6.3077756226978 6.7363047416523 6.8974122704983 8.3256237756608 7.6183160565753 7.0644669113732 5.1853265867068 6.6778639702264 5.7791855168997 7.9180852073984 8.5181488286116 6.5608917253419 7.7514926153316 7.158728283502 7.3685063849863 7.1933229659192 7.0452189760036 6.7526983917046 6.3017610768034 7.9592801869025 6.8217979345002 7.4090142727635 8.2841786128362 7.0731006183407 7.7317814561079 4.5589290781564 6.3716998662567 8.6529084411248 7.1458017163975 8.1593392513029 7.1105627346841 4.9689165736372 6.6401948194455 6.7451083831163 7.0403158279087 8.2298451179216 7.8095779781338 6.195921898135 6.6806800046705 7.4347778526935 6.6935970460203 7.0372972328968 5.1239383728363 5.3619086203504 7.5831373757269 6.8144803437313 7.2901124758017 6.1946539321352 5.1759935849904 5.7595556813219 4.6469245981549 7.0288664043487 4.9726793176404 7.3768440185251 7.3577022230224 4.7845749540565 8.018382423234 7.519439312195 6.4499655967574 7.1177951163135 6.2712656234153 7.2700755849759 7.1020494899632 7.0781574546754 5.7710638920278 6.5377271885541 6.8568591556751 6.7078260003071 6.9464830337954 5.8698155382504 6.9221035409425 6.3134897326652 6.6917530391814 6.6779595094832 6.706502954398 4.3993873343728 6.8577366324302 4.757768842299 6.4028377281873 7.0842498066183 6.725780901725 7.3838854352237 8.6082363616617 6.8965966058548 7.4082965295966 6.7318010344803 6.977728061284 6.5048336832835 7.6065021302228 7.4756146511696 4.3054686914682 6.6105574078962 6.6051800114361 6.6897296634311 6.8405103488034 6.8910100261928 5.3607431161369 7.0272677331667 6.5900574735136 6.5298055119789 6.0738658849905 7.706108670693 6.450839282054 7.2479097521292 7.0245892893506 6.264611677313 7.2419198659223 6.1953605855105 6.6990630875027 5.8324778879176 6.7514407060521 5.2320259094654 6.4848888884901 7.160001122653 5.9448406658605 6.9807445740807 7.0569488913851 7.401474472667 5.5560950676321 6.5377391310724 6.5672019967281 7.0143129896078 6.7077393720374 6.0600004203685 7.8941008935827 6.2037026044437 6.8757716211427 6.4708614120674 6.2037467271795 6.309516918275 7.3967365217531 6.7133647895478 7.0017172156564 7.2795128005465 7.6951104202016 6.6628680637491 7.1952466037728 6.827422409938 6.834441065141 5.8734176219063 7.0163636531509 7.6772373701344 7.1532316255561 5.348094545997 7.2945607836713 6.8511505901895 7.4633978776883 8.4990229138811 7.468862900844 6.7572781211995 6.2830717134728 6.0336374274985 7.2011303629376 6.9689345130854 8.0276782686895 6.9484096598528 7.8672512204468 8.4081829842312 7.7071330734988 5.9732381433528 8.2745380089279 7.9465330576879 7.2383455716171 5.4432707130437 5.9470968169487 7.6990989408874 7.3852427991594 6.6940775178374 6.743052519168 6.5256315008197 6.712310503825 6.7336790021454 6.7770376305629 6.4915098148019 5.9024446744508 6.8836730464948 5.6751597156182 6.3804988169873 6.6998540386799 6.3455341206886 6.7808272898502 6.7651968640973 6.4793320105817 5.9954701774364 6.3214948759494 7.4459943875398 5.1923633123068 5.1069893293487 4.0452656649187 5.9071685268501 5.6528162719135 6.7855553788632 6.8653748934801 6.2593149457727 6.3910201009019 6.3560041539333 6.7465435225957 5.8094406459772 6.9178584520048 4.4310695406895 4.8187906531308 7.5144444566029 7.5622573532497 7.1452781343403 6.6396269041485 7.3794711539245 7.9398330855651 7.3801185041037 6.3542073312868 6.7889730613132 5.1199221573378 6.6532024646625 4.7904987139744 6.0680489359607 5.1133222167964 4.9103243374993 5.9831047433498 5.2290440955182 6.6372184046992 6.2337502101987 4.4449866712694 5.8443158333264 6.1910025888735 6.7862767284068 5.3339929717283 4.8099473516577 4.4593678055068 6.0058144632715 7.301377143701 7.2729933631226 6.5167423669497 5.5003868820784 4.9125437408187 5.8479175826309 6.4997528454545 5.5429498367511 7.7523296561801 7.5616898814538 5.2599847481608 4.4732873867293 6.3059742496626 6.4325762993779 6.722322313765 7.886264855431 7.7873824011682 6.5030990982896 6.8544322586995 5.3434687073689 7.6751658838736 6.2218354210053 6.089015000331 5.1359501611264 7.1501534206066 6.153802156709 7.4864801559318 5.9263841173282 7.0296757068642 7.4067667366935 6.4321974392672 7.2020969129627 7.5438290917216 6.7207630842732 6.7175567795767 5.0080529817025 8.4021539901961 5.1054069161181 6.7602625537158 7.2121070737021 6.9189983281129 7.0762755622357 6.2898374016296 7.0886651373153 5.8564869765292 6.4139232136746 6.6720122979183 5.6303968883987 5.5041199832261 4.8020839753543 6.0167667345167 4.6863141573345 6.847588050069 6.4439216921194 5.6524368711532 5.7433402476436 6.7035525637078 5.3900987542162 5.0520877121968 5.7234849865813 5.1362627146256 5.5317200890703 7.2157714949171 6.5947819270835 6.9308241006712 5.7417838608336 6.6341755246962 4.426469518056 6.2119880334395 4.1260769379141 6.1958447343185 4.4399107465778 5.899258167043 6.6347030744595 6.3342841118012 4.628622750772 6.1678720125556 3.9416988131293 7.4729750725646 5.560879741332 6.0378865883702 7.0151402517606 7.1220170563918 6.8336710039371 5.3914364099397 4.5491536979761 3.7353507513274 5.6306858561138 7.293391677738 6.1142416796578 6.5140804250979 5.8161665151359 6.5770670640999 6.2181734421943 6.1512777554601 5.5351353894197 4.031046245323 4.7080869516196 5.7747680789737 4.5525007547403 4.089084472036 4.6804913990168 6.5227376730178 5.2026220485307 4.0639920587894 3.6672641005845 7.1014064161224 6.2074118933552 6.1121367518225 5.405724638263 4.3982060390979 5.2839461229325 4.4237905780577 4.7160825397021 7.7229490688743 6.6988550921236 5.717217615282 5.9648848444831 7.1928713733323 5.6618432512989 6.6129571071926 3.8820739011758 6.3779396560872 7.7200424363176 7.1453811955377 5.8957734660044 4.84126671985 4.0170095640783 3.4537146990503 5.2689538108635 6.9058069014836 5.3587036694432 5.4103716894097 4.5109889955048 5.2819507708773 5.8258307882367 7.3235197655119 4.3881027164146 6.5165906475209 7.284603315515 3.5883658496262 6.2979280085844 8.9127586741663 6.3180478161186 4.4714813163484 5.7692780342901 6.3959396208347 5.0795032897374 4.7277886981341 4.2127760504905 6.750007607604 6.6509773528526 4.2643889654836 5.7338405412395 6.2395926767077 4.9014257213423 4.3841352006 4.0401122480217 6.6095119604782 5.9951087231799 5.7720267803239 5.5377712532746 5.6961809250953 5.6550058527691 6.6580186751257 5.4804635118181 5.5885838920893 6.5138423946769 6.2130423239578 4.1765073735528 3.3583957846908 6.3923082550254 4.4618326294637 7.1506144999209 6.4871565562735 4.369342568982 6.3258804527162 3.4128566682294 4.6250836215858 3.2560861527806 3.7366448135442 6.4170835213218 4.5099947786067 5.6237649966729 4.4268746757017 6.4362198191478 6.0452689671257 4.9010970368067 6.1538476968075 4.2406959838183 4.5790357289745 5.1477949167998 4.6922650886301 5.7845161851011 4.5244923636236 5.6615994034426 7.2815884687851 4.2210630013566 4.0310072828043 5.6138160203594 5.1054119763264 7.3036205311902 4.8776350271082 6.9225641082789 5.1204748145263 6.775681427375 6.2124823419627 4.3279776578499 3.4558155224937 5.7632711287403 5.2217287206003 5.289846942193 5.3237173755584 7.9363034750655 6.6982605978328 4.1934216673755 5.9844809007052 6.7006190123945 5.790035683921 5.8505859708122 5.3600326540977 5.7614617632495 5.2523535895001 3.5199118518813 5.3226978208224 3.5910357066113 6.0135897842437 5.7119701724805 5.6539275921379 4.643637692979 5.2891776308445 5.907796014572 5.6523573285226 5.5665287331216 4.6188194239486 3.8429479434591 3.3158911236908 3.9912432871369 5.3358455502973 6.4247271042404 5.8444461433517 5.2485023573095 4.9673135886753 4.1770384917423 7.3590400146669 4.3234064506901 7.4842931979854 6.4936935517482 3.3325303430516 5.7346300907199 6.375926702891 5.6634256065956 5.8815216932309 5.2413746952542 4.5470219301446 4.5105560491617 4.4026831272803 5.2994724032342 5.5007079063816 3.3678147214705 3.9569714912148 3.5205027931104 4.1858777289055 3.8055240019623 6.1126088545075 4.5865921752504 6.1629240571215 3.8248820291012 4.026239949778 4.2826874351487 5.7496885328466 3.6412953739626 3.7404263219598 4.7403943575673 4.1906769281783 3.3248072365387 4.4534695929648 7.2667998144613 6.3245337432244 5.1576126235 3.7683409768339 4.0812146421391 3.7041221263732 5.513966217087 5.1687435338356 5.452663406638 5.2096005107637 6.1047066728779 5.8203697365201 4.4402165663612 5.8596655942116 4.5944881225817 5.7675230189093 4.4957368687048 5.5247850100382 5.9333301881159 4.9854360601573 5.553141798767 5.3503882585281 5.5320770540761 5.7894160702806 5.9067513502836 5.1739815990916 5.607886956747 3.5230299698405 4.4360568241652 6.2789594463083 3.7295027117013 6.6566734565275 5.0969123747922 4.8165231044508 4.7691572960283 5.3137583323077 4.3209056540624 3.9179522720028 3.8604457950078 3.9411000009985 4.0716841045465 6.4438602710808 7.6123921002998 6.9129151776326 6.9331781191442 3.953290931679 3.3544528010093 4.2298714254024 4.5229487340308 4.7986844545372 4.3071800893185 4.4836961855302 3.9882509257222 4.6530727837716 5.0363104131727 4.758390748856 4.7322821086244 4.7305577700572 4.9372436350336 4.4675562268563 4.2526020881626 5.4535360550402 5.3776842147457 3.8684865124625 3.2985552746784 3.1753989515404 3.7514110383299 3.4697527323982 5.1775469248737 4.6969626406817 5.6953626345972 4.8127741363485 6.9761280152967 7.2247249562305 3.455271880531 3.7899144222605 6.174189446059 4.3031424084512 3.3314776125229 3.4160493484686 4.1366750407563 5.434243118355 7.0254031440927 5.1707626856596 5.8115902010365 4.2229882932092 4.2565322846517 6.9718166783866 4.1188913039948 5.1272504507459 7.791042910117 3.998257772647 3.5426642676249 5.8629613550322 6.1225498657565 4.1766555536204 3.7829539470164 3.630644908619 4.9919334938671 3.7027223085346 4.0148808991872 3.2241961103207 3.1252686908736 3.405307261317 6.940232288147 3.9537684767329 4.318448414405 3.8642334993752 4.0748105337236 3.6666742754283 4.5358798585559 6.5196250719416 3.2271215639197 4.9872668932928 3.1331336312208 3.4240917582283 4.0629545445708 3.6149202508584 3.3160889572713 3.467656892673 3.7370562204287 3.6011883491127 3.9062975029802 3.3809369647691 5.7285308707628 4.114577367121 3.3043111967111 3.4182698445711 3.859023346536 3.746634022895 5.3447431249723 5.3180578207839 5.4081759604278 5.5831122840873 4.9019865155702 5.2449761279437 4.5567879686695 4.7714722099633 5.2908781869992 5.1060611416156 4.3190515824017 4.6308771015027 4.6269726279407 5.2754293438056 4.8820035821817 3.1451394284103 3.8605982886452 4.3852032072819 3.6780116407532 3.558702534319 3.4116952791383 3.4660152029018 3.3088587490217 3.7410670417521 3.2869652130684 3.6751971797977 4.0104582622249 7.1623951426293 3.6681033769048 4.1085916891914 4.0624928801197 7.5288289494147 5.5718080837736 3.325524127016 3.3365673278063 3.0528862441966 3.6037353570308 3.9564910267058 7.4919643029806 3.2691992256356 3.4777433660006 3.704316959653 3.1572709418124 3.9286323285214 4.2861355490967 4.0263113589457 3.8960778133181 3.4446621621181 4.0527597721722 3.6422364567609 3.3485028143443 3.8772990833229 3.1669088098529 3.3010169468972 3.6889260256652 3.8256191264434 3.0243404582803 3.2761547675893 3.1138033374062 3.1703937019485 3.1626571715461 3.0505982859086 3.1175375140961 3.6555677289132 3.5697704434724 4.3561719928787 4.4595663753516 3.3450763793621 3.1851952509045 3.1210083044023 3.9470809594293 3.229382129933 3.1788990060189 3.151027613943 3.1667540283715 3.1992754372095 3.3966787293796 3.2823013973407 3.8803039386623 2.9778096132756 3.2609001223012 3.4974662672643 3.4496964511959 3.1352854466979 3.1382523892821 3.0976652990399 3.2529663287378 3.1818033797496 3.1649397619083 3.1363765318265 3.1509482236238 3.2261802855972 3.1525476913845 3.4095110186313 3.2115705600078 3.3143881364873 3.1208581684856 3.9963893777797 3.0520880781957 3.3023610022792 3.1363249491377 3.1421081495335 3.2062936888756 3.1162492683453 3.3587748765049 3.3450812152135 3.1885069384487 3.5852033351663 3.1849426550873 3.3682280602813 3.0455077936565 3.0855471001301 3.2616131732085 4.0126001146699 3.4210263662815 3.3162659960857 3.0571389030035 3.8785457565457 3.3411457542269 4.0905317664385 3.4202966728893 3.198215671988 3.2721555704211 3.2321015121064 3.1890655500273 3.6136569906203 3.5161907461009 3.4785570127968 3.5293924913254 3.5635316262556 3.5062830279611 3.6601335584544 3.0929427242662 3.3997960100509 4.3106548186182 3.8994963427998 3.7388511208905 3.3463382265627 3.9577415497604 3.0994707507855 3.6836611882483 3.4110739228305 3.9447467276389 3.409974654301 3.6137315937678 4.1178918230016 3.5189573991489 4.0268680864293 3.6934655510912 3.7193426264086 3.812384755488 3.8818154391075 4.0087602962202 3.6243928640567 3.9485408895206 3.4018269038327 3.3520737041658 3.3386943538518 3.4081449060892 3.6386037709015 3.8767877034114 4.1314280469128 4.0223742223586 3.5978035598567 3.8880662618972 3.9348451290167 4.0822734759721 4.3916599498613 4.1470272202621 3.6297261655043 3.4649628011604 3.4962990108144 3.7767718432199 3.7613519818718 3.2606605017835 3.5005610962534 3.7825520172951 3.4560463858403 3.6806959666868 3.4424251539016 3.8772755155844 3.8895797861186 4.0722254251523 3.9057403621944 4.3096814145153 4.2448058514619 4.1184228352082 4.055493964354 4.0351185348331 4.221784924554 4.2115192820129 4.2544571078706 4.2214432041816 3.7910973857913 3.5118493427386 4.2699532447763 3.9069771089696 3.7169415330529 3.9543518053897 4.087541685076 4.2662892731927 3.9089305577107 4.0924224454479 4.3733393187324 4.2970131212941 4.2530791064533 4.3435253020117 4.0344306219488 4.323882653063 4.2932037721414 
SCALARS 20.00_0.07 double 1
LOOKUP_TABLE default