# vtk DataFile Version 3.0
d-2__ created by libgimli-v1.1.0
ASCII
DATASET UNSTRUCTURED_GRID
POINTS 570 double
14.5	0	0
14.25	0	0
14.386963504964	-0.201738469428	0
22.399299936458	-0.310870122736	0
22.129824335287	-0.229914148082	0
22.126320781198	-0.518791771445	0
8.472303742627	-0.591754876635	0
8.780507935475	-0.76092407121	0
8.82173151259	-0.349253271447	0
18.663262297679	-0.667179415955	0
18.934786529245	-0.453308328646	0
18.636898038907	-0.29588182328	0
4.016904362632	-0.85330676142	0
4.076038737616	-0.331410355179	0
3.713721571226	-0.470767763626	0
1.89953779852	-0.269343012166	0
1.633800503821	-0.203067612233	0
1.644492760828	-0.441295523531	0
4.368408037607	-0.250833874131	0
4.337474161742	-0.544420985055	0
4.67745607622	-0.378433532554	0
1.406172533733	-0.772361039307	0
1.913288206557	-1.218576310882	0
1.90687689783	-0.651895683444	0
2.5	0	0
2.25	0	0
2.347047126858	-0.185539804102	0
1.374000926997	-0.300418771701	0
1.25	0	0
1.114902662369	-0.201591505098	0
1.067401015567	-0.470108640981	0
5.75	0	0
5.699780065382	-0.324747799653	0
5.924584257371	-0.172748359932	0
0.883560935405	-0.231136840652	0
1	0	0
9	0	0
9.117836368049	-0.253904480787	0
2.625577516194	-0.346770599322	0
17.859079774019	-0.943547525024	0
17.535029634209	-1.703182852412	0
18.338018094476	-1.366069799339	0
19.932263871771	-0.826489183604	0
19.881635677668	-0.346204516721	0
19.622287080959	-0.573770479943	0
1.5	0	0
1.75	0	0
23.25	0	0
23	0	0
23.109690227386	-0.220340974338	0
2.75	0	0
2.142562771237	-0.172460438312	0
2	0	0
23.332392704446	-0.202507275941	0
23.5	0	0
19	0	0
18.75	0	0
18.888143078348	-0.195773419804	0
2.90152418742	-0.185685383897	0
7.612175045312	-0.180627982114	0
7.527150943175	-0.401430797998	0
7.881917737402	-0.30462800112	0
25.630635194756	-0.512020961038	0
25.243766894324	-0.80097755811	0
25.758031115142	-0.952821630144	0
3	0	0
28.84859809239	-0.201276387394	0
29	0	0
28.75	0	0
4	0	0
3.835807353334	-0.199536243303	0
3.106904732949	-0.178783649348	0
29.25	0	0
29.092446172194	-0.305987136665	0
13.5	0	0
13.667851890428	-0.185102765244	0
13.75	0	0
3.75	0	0
14.407363653886	-0.441423674912	0
14.125469935998	-0.279652141152	0
4.25	0	0
5.061980176718	-0.407989246181	0
5.335512032876	-0.269401530321	0
5.113979852892	-0.173834924157	0
11.882046000841	-0.812345557852	0
12.478640631525	-1.146569360669	0
12.244190771573	-0.565936619511	0
3.633270844505	-0.195395238442	0
14	0	0
18.378272976509	-0.514977451159	0
5.5	0	0
9.619519097921	-1.16461851757	0
10.030576753886	-1.587265312651	0
9.961661342999	-1.070235523667	0
5.25	0	0
5	0	0
13.157975569138	-0.830425793913	0
13.83833027638	-1.238601004239	0
13.671302359608	-0.710707966059	0
11.325917093147	-0.8366783502	0
11.612143285947	-0.506264798476	0
6	0	0
7	0	0
6.83842404292	-0.188923754932	0
7.11236984822	-0.391746146843	0
6.631875629497	-0.169178192832	0
6.75	0	0
3.21002197083	-0.595267231049	0
3.445510026908	-0.608065324465	0
3.362318141622	-0.306501255187	0
6.120159502895	-0.164221934939	0
4.538525595924	-0.906226152762	0
13.233775457127	-1.737244787017	0
4.5	0	0
16.138065841822	-0.472802517973	0
16.126746690205	-0.221608117926	0
15.859319180798	-0.326402762318	0
26.080401003391	-0.227842452866	0
26.25	0	0
26	0	0
3.019224421113	-0.401469974918	0
8.234901607028	-0.35771789179	0
8.518285578354	-0.242327591839	0
8.328777073389	-0.153008859619	0
7.25	0	0
7.400656881666	-0.195280611572	0
7.5	0	0
5.385509485898	-0.709154879541	0
5.948697127931	-0.745234910621	0
8.75	0	0
8.5	0	0
8.25	0	0
2.214249105773	-0.404278959534	0
2.896561357202	-0.792481120253	0
9.25	0	0
4.920911116561	-0.192028847294	0
9.651670336652	-0.200847798694	0
9.849824537955	-0.19917205686	0
9.75	0	0
10.095049354068	-0.315754204277	0
10	0	0
3.25	0	0
6.738406513564	-0.710129601907	0
7.121614580011	-0.943026074581	0
11.345829942703	-0.314788260019	0
11.25	0	0
11.104427225455	-0.188863495516	0
6.052412255932	-0.372556729023	0
6.373371846535	-0.274163514827	0
10.25	0	0
10.380281579003	-0.241092027437	0
10.5	0	0
10.75	0	0
10.909079077441	-0.189427130481	0
11	0	0
6.25	0	0
6.5	0	0
4.75	0	0
3.5	0	0
10.672815698565	-0.318467932684	0
10.772487906066	-0.787092734739	0
11.020900486567	-0.439266778492	0
8	0	0
7.75	0	0
11.5	0	0
11.619450354737	-0.231443672836	0
11.75	0	0
8.139317726831	-0.163309591658	0
12.25	0	0
12.158949464947	-0.235415698299	0
12.412455385193	-0.275030800337	0
12.929165084344	-0.221336108042	0
12.686337592177	-0.258437422252	0
12.900449535554	-0.462768612232	0
12.5	0	0
9.405755833308	-0.325979504745	0
9.111697192308	-0.594170467817	0
9.457257345083	-0.753685223931	0
18.101369157139	-0.618560521812	0
18.336839281097	-0.861122419318	0
10.385948631267	-0.570640149046	0
9.5	0	0
13.411260455969	-0.342646276848	0
12.643108055516	-0.590179775368	0
13.137744715761	-0.195204172124	0
13	0	0
21.25	0	0
21.358341816502	-0.326561417551	0
21.5	0	0
13.816492716597	-0.40394453634	0
20.25	0	0
20.423452336785	-0.313445603959	0
20.5	0	0
17.789350393153	-0.390447709085	0
17.987794057246	-0.401472255242	0
17.881276545163	-0.206424156589	0
19.564465692234	-0.270867872644	0
19.290725118801	-0.49926248604	0
16.392319441256	-0.29915360323	0
19.443730892406	-0.923508713428	0
20.457987075478	-0.803203365193	0
20.167450719332	-0.505159975143	0
0.103762538371	-0.253013629949	0
0.267057015134	-0.483604909932	0
0.374713194419	-0.2320817565	0
13.25	0	0
17.415572543912	-0.230682214253	0
17.5	0	0
17.25	0	0
18.108153655084	-0.208141099276	0
18.25	0	0
18	0	0
15.75	0	0
15.544586046819	-0.246453491997	0
15.122708481244	-0.193620038745	0
15.25	0	0
15	0	0
19.75	0	0
24.149237782749	-0.319013340846	0
23.842766599446	-0.577371105011	0
24.183995039966	-0.73159476451	0
13.871646321742	-0.17394291424	0
23.862588150518	-0.245417872715	0
16.84024277193	-0.203626765466	0
16.704049384397	-0.435508179396	0
17.112673188265	-0.38804641709	0
24.75	0	0
24.832880292394	-0.290571430318	0
25	0	0
16.40158555625	-0.755912194683	0
16.850299990829	-0.757941865332	0
17.75	0	0
23.567455674596	-0.325197491724	0
16.25	0	0
16	0	0
22.645812614293	-0.197864648876	0
22.75	0	0
22.5	0	0
16.75	0	0
17	0	0
24	0	0
26.914424714815	-0.337869958787	0
26.621963281699	-0.624626679172	0
26.977877660759	-0.778408201088	0
26.622424322919	-0.264588309935	0
19.34462271879	-0.199329831305	0
19.25	0	0
19.118057075065	-0.225686869553	0
19.5	0	0
26.75	0	0
27	0	0
27.5	0	0
27.604422363523	-0.298869962794	0
27.75	0	0
17.650384190064	-0.227839036584	0
18.343198956448	-0.236734208617	0
18.5	0	0
24.25	0	0
20.143897114391	-0.233773711865	0
25.5	0	0
25.25	0	0
25.344389320279	-0.31693710653	0
21.059546193318	-0.24845941382	0
20	0	0
25.842927934822	-0.248287716678	0
25.75	0	0
25.613904645132	-0.216025146631	0
21	0	0
11.763551406169	-1.481607093928	0
30.981104050195	-0.5526690913	0
30.873880294509	-0.217692518774	0
30.706626759758	-0.34945139905	0
20.75	0	0
20.85240828135	-0.178025243856	0
23.75	0	0
20.66289882074	-0.189089155251	0
30.204950808504	-0.791758966623	0
30.715535843381	-1.149995259266	0
30.543724897762	-0.572259098027	0
30	0	0
30.180216671806	-0.343473673313	0
30.25	0	0
23.229584388362	-0.458653998547	0
29.5	0	0
29.623391954444	-0.322069028408	0
29.75	0	0
21.618913855927	-0.233585823579	0
21.75	0	0
29.348490380579	-0.521100538161	0
29.36294710412	-0.230601226356	0
22	0	0
22.25	0	0
28.25	0	0
28	0	0
28.129259193923	-0.314252106503	0
28.44374413871	-0.484576386004	0
28.100199615755	-0.812038297775	0
28.649230646972	-0.871769248311	0
28.618403654115	-0.227691192115	0
28.5	0	0
28.387848605749	-0.205892081491	0
29.054768525933	-0.708603081552	0
29.344906532636	-0.846887322836	0
26.327430876245	-0.35930637997	0
10.349120516034	-1.04150119828	0
10.894920134778	-1.514321070539	0
24.59640839418	-0.191760546865	0
12.75	0	0
24.5	0	0
13.102881121377	-0.411296235356	0
25.099388239946	-0.214879887129	0
25.97986022697	-0.52841375324	0
24.398993403151	-0.196312410538	0
17.860840746535	-0.577367743328	0
17.566481510048	-0.529340016102	0
26.5	0	0
16.637148248735	-0.188015807345	0
18.183918302467	-0.396443618316	0
27.159348252167	-0.205297590358	0
27.357530053515	-0.198815038154	0
27.25	0	0
15.060354649709	-1.112587998155	0
15.51532665618	-1.043792149387	0
15.178150912169	-0.713100616689	0
10.051363365948	-0.719159376333	0
14.661248691948	-0.27865166374	0
14.75	0	0
27.868836823455	-0.217301839861	0
31	0	0
30.75	0	0
-0.020273477909	-1.415389842481	0
1.054972770973	-1.487485199502	0
0.512583677021	-1.0438154777	0
0.75	0	0
2.361419414365	-0.794513604096	0
29.890297721653	-0.2433406165	0
30.473599299501	-0.238575611274	0
30.5	0	0
30.660802173874	-0.161931182737	0
28.783812899585	-0.467926883932	0
4.937022539393	-0.72440615077	0
6.696914540879	-0.380672503721	0
7.434272221796	-0.695675918868	0
15.339606453815	-0.166204802571	0
15.281953315711	-0.388999642276	0
11.893544445085	-0.335972898148	0
12	0	0
9.753796445798	-0.478866225926	0
7.720012958977	-0.638314519759	0
21.871398197179	-0.313006985103	0
21.615176662754	-0.521922347305	0
21.856785525528	-0.665128848631	0
20.792152536902	-0.448319093295	0
21.109577821412	-0.527879642114	0
21.360297691811	-0.734200004244	0
15.547854961707	-0.580173571081	0
24.496861814148	-0.467031445896	0
25.067351422649	-0.463427753535	0
24.81263825963	-0.684738154192	0
22.865620821195	-0.218348593093	0
23.443705587002	-0.773171720633	0
27.277617447467	-0.489224417775	0
27.863714790534	-0.471681393437	0
26.239117668995	-0.863279739365	0
29.896797054636	-0.547765129844	0
29.612773839625	-0.699757135752	0
29.867172666547	-0.87444432816	0
29.610354212963	-1.521444655905	0
29.59548165142	-1.071765512911	0
29.115129171034	-1.220660174798	0
31.345359428525	-0.458952144926	0
31.144859415042	-0.241304201582	0
15.919565295974	-0.746550096707	0
16.063006820294	-1.289595303187	0
16.5	0	0
14.900855313538	-0.178071167744	0
14.161016743654	-0.72559708689	0
19.011498044983	-0.834202892304	0
16.760433281999	-1.263698818643	0
17.280361389946	-0.931704507314	0
-0.627742252535	-0.296285438777	0
-1	0	0
-1	-0.5	0
0.625738545692	-0.228405936136	0
0.5	0	0
3.313957665883	-0.865581185485	0
3.619156095452	-0.800599314657	0
[...]
CELL_DATA 986
SCALARS 100.00_0.69 double 1
LOOKUP_TABLE default
10.768735289082 9.6929399512759 8.901975450235 7.7245859841159 6.4730322580084 8.8559071490815 9.9313528137938 6.5657045052352 11.049559418505 9.2179778417852 8.2540367985126 7.973804918219 8.6082180697547 10.912365273335 10.485142461121 8.8255284848105 4.7212643222005 8.9820391557731 8.4470780279007 9.8459610529619 8.4594977923839 10.552920489715 10.011593438439 9.2689497936261 13.352310533465 8.2510549099642 10.389961309852 6.2259571836091 7.6851578914928 9.4009281793558 8.2753495702011 10.796740672274 10.161768234553 13.0620124512 5.5618571039748 10.712048431904 15.857536614729 9.4494444450256 5.6863401003825 5.8288454600348 11.367444975328 6.9495302866602 9.7261279650409 4.8379078020732 9.7440237356917 8.3991510556118 6.8718771146335 7.4745102700407 7.5691430528945 10.455261177138 8.6758081443951 6.5087029331343 6.7446143031536 11.369273933596 7.7498741261994 7.770673899356 5.0152755863143 18.64039545029 9.1138230068253 6.557877165447 10.289531877461 9.0200252601974 11.792564679578 9.7944695398709 15.196717693903 13.824997853292 8.5295244238987 8.04340824641 9.4366963098661 10.2072690057 10.025363431684 12.137539072567 16.812956798257 11.994800170156 10.458515191707 8.1441741056267 12.61543749752 9.8189072788055 13.052137695386 10.736748874443 14.15983912028 6.4050495682209 7.6811827568295 11.202634701467 12.772940195571 19.171950911986 13.484051738971 10.938117258693 13.923015602029 13.250449567728 8.1892500207583 7.9809165070449 11.148355451652 15.490162504417 10.05582200085 10.982374840389 17.476798873506 12.795872113417 12.077789688511 6.9101514557816 11.308966617584 10.575584944933 7.9495189547031 13.788855909192 7.3524278669339 6.2816234092072 9.8004617822058 7.938274604531 8.6573849384545 9.5522183282274 7.6284723105171 8.8431424068837 9.5780210974138 7.6975350166554 9.8778029702427 9.6873204798905 8.7846783571365 10.958223484618 9.4337813400363 9.1397862428256 8.1504349208672 11.893314203514 8.8586403207424 7.1756446104672 8.8223012331568 7.0527603337515 8.8148353719143 6.3967451229356 9.0739308710542 8.7269653200229 7.3412721210263 9.9831091393852 10.579591741907 8.6140053729404 7.2900487716109 12.979749839697 8.4764621031722 11.622894151362 11.0377683346 8.0091998478619 11.855664752 8.9307835335595 10.124072055257 10.165502725201 17.991997260074 13.265679838126 9.0318148795791 6.6978089586177 9.5790786319349 7.5299834896713 9.0569622408469 10.241097897068 8.2150496204336 7.9770331653303 10.447899854704 10.479632154864 10.715352871455 7.9897117338891 6.8332145005845 7.9328556469609 10.478391576974 11.914063066624 7.7461048747367 11.815846111152 9.7879224049071 7.9746097230194 5.7048552306697 7.4923609305336 14.593781438901 11.226638353951 13.18220829821 7.9861534296703 6.6588921971368 6.4764386892504 9.5655985075372 9.7027882119437 10.409998091973 9.2667679173388 8.8207113938696 9.5471595086 12.606417677095 13.060760776482 10.518908440188 6.629306856445 7.7354470816202 12.77380295571 11.071902723379 11.913908414587 8.9306866144451 7.1454676897963 7.8104522890729 5.8403100093856 10.501332146205 5.9610208506363 10.711622769652 10.764859658465 5.8911271602351 8.9740592483505 11.439373879071 8.7904067602488 10.495113680015 8.9225208138617 6.0739396293144 8.8214629837542 8.9569032419293 6.9615781560286 10.062793060592 9.8293272800496 10.83747089711 9.8944682335194 8.6677083006119 11.585333118518 7.8125955925336 7.2764511388273 6.5419339296845 6.2631109377188 6.2739620409287 8.0347581064247 5.5796640506556 8.9491475624132 9.9529859804514 11.151787895965 10.546567512721 10.35765653246 9.301951355671 10.724569242414 9.9658241033063 9.0343039078242 8.5780806800642 9.0152084845534 8.5616073918812 5.1705467589933 9.6267682373972 9.7076284373873 9.1026624830037 8.6797158055901 8.769224539187 7.7374602777415 9.5109845117637 9.0525078564861 6.7172110994696 7.2607928708192 10.466664371922 9.0910931403961 9.9168017422845 12.082115223442 5.9895140618553 9.0868696026102 10.816033723744 6.6001149249667 6.9653354521971 8.1963261290925 7.4477833389634 9.0978978683567 9.4557753809267 6.3910064919177 8.5902045772185 10.129169100099 8.1594943417703 7.9459253291537 10.156903717341 12.238316182618 10.93186538703 9.6548232375462 7.5962462675772 11.822166623926 8.7639916581433 9.5992605247114 6.3331889150456 7.1741674879056 9.4889618692726 10.053889619161 10.770187018499 13.866505904227 12.101342198947 12.032821207993 8.7330762241541 8.5215058289938 11.097374022911 9.8531040098398 8.6681861461198 12.424015871533 13.580879295168 12.430636147805 6.4606259173848 12.874538729168 9.2465331867503 11.867874478797 14.509773503685 10.475055816092 9.4386897445259 8.6359827570131 7.7804543641234 9.8543832190629 8.7877932801595 9.8548220387945 8.546263851096 9.8379286989448 16.757948656252 10.367596706965 7.1769401678412 11.030824201649 10.97960312509 10.261981457124 7.8224989164789 7.9375112571441 10.07115778002 10.043987427757 9.0231778724379 9.8516678607052 9.1912061575495 11.025244335264 6.4874806228556 8.5171844199426 9.4657165307403 7.8611429277547 11.09228111341 8.0284345354729 7.5265626562935 9.0320904076297 8.2312163783371 9.744833971519 6.5274989643388 7.1591781231318 8.6372531816197 8.375735606642 10.091230027472 7.0823009855462 7.0512843389052 5.5205660985339 6.3278035760996 7.7410790660743 8.3302684515981 9.2858632223378 8.3750540280556 9.1938718955352 6.9138750403346 14.255961028619 8.1311225241631 12.848870114437 5.8815330895658 6.8379259144351 9.536155420869 10.296269954429 11.944296022453 10.510964176841 11.850180305777 12.825042236103 11.195429460871 7.2454643781457 8.4856069692903 7.287448314224 8.4774568416167 6.2387331201717 8.3202962281132 6.1713860898658 6.7372944058587 7.5661162060323 5.5228685089724 8.9407212133259 7.5559748770824 5.6334042755104 8.1740927716607 9.2067937033292 9.4937150459628 7.6815261240115 6.576542387856 5.8029635202385 7.9767630966757 11.257649914723 10.220361698194 8.4981203611335 7.6392690497649 6.4774345118758 8.9203016302667 9.3244852643562 8.2057494742341 12.151177210154 10.803937336991 6.2393971041239 5.6474446892906 7.0677383283478 9.8223439058704 7.7603637405935 10.02090658309 11.50249736773 7.6644457075634 10.281282425342 6.7747951670703 15.775362009947 8.7067639280216 7.4248215630896 6.2451718499971 9.2019853364411 7.366120408272 10.53454313909 7.4065588212683 9.8128583376068 8.314083973547 9.088779538709 10.530712996968 10.842350640611 9.4433347416165 7.7058454869378 6.3658674857512 14.857765216134 6.0837836649479 8.5249053664208 9.9940839453394 7.3971638530568 12.701054504377 8.546534971312 7.2664729024176 7.6733532629049 9.3605862574014 6.8138085598083 7.1021650705338 7.6825329969949 6.0206987888261 7.4293851446244 6.1047252926263 10.375276082281 9.0624433210608 6.916194982075 7.1968072885387 7.5391946301072 6.7189682550895 6.7666960779693 8.0589127584531 6.7191190624208 7.4313875622464 10.629400344776 9.1554527683077 8.5611852312168 6.1902286068488 7.0984824676735 6.1704361353842 7.683361426379 5.24002506225 8.0242772641536 5.4188179117391 7.2745818620683 12.799990928235 10.122492356425 6.0690428075537 9.4580616100507 4.6990970788848 7.513831740005 6.6657053319901 7.2442182447643 9.6520798360196 12.261693310095 10.664029352836 8.1900351656904 6.111494793012 4.489786409007 7.4978316904403 10.160136868822 8.7519974972671 8.0900833836841 7.6489525762564 8.7477324406023 7.968646721301 6.4952658488956 6.1061077442528 5.0118243438958 6.5232284032046 6.6969607771433 5.6103229944582 5.4442191745949 5.7849582065793 9.215559932359 7.140015151476 5.1363287263842 4.5715926026697 11.160406627883 8.5037880189511 7.632620341956 6.8972456761831 5.9984287886072 6.8498393023682 5.6489997153298 5.5715423459469 11.824020935219 9.2492984308714 6.7005095302951 7.8764813566355 9.0111759793026 7.9639161130586 7.6160158740876 5.2370081168341 9.2165875200151 10.623539969029 13.07960737048 6.7979465298583 5.6383792165615 5.4491588987073 4.0743026158698 7.1243424084169 9.1667673533921 6.2697600889751 7.0561128667861 5.4146942499193 6.6385395757618 7.9274592862009 9.880909656677 5.5723049162741 9.1200788627783 9.4510747425475 4.2945970924657 8.8579568805384 10.338683911893 8.6934087843349 5.6648634833421 7.6220129881738 7.5327161525465 6.513452464793 6.3243780486825 5.2610438973143 9.6544888849338 9.3974953661983 5.3522985895429 7.8332013782297 7.2999074222941 6.083979455742 5.7056739151699 5.0098497114536 9.0950721857187 8.1826237865789 5.8302881285258 7.4007936412564 6.0186086296736 7.8782507844503 8.2683041676704 7.1672447251926 5.915071726007 10.041910938523 8.8411911858921 5.6228479745009 3.8648132207052 8.6382314770427 6.1740233749215 8.9245173268537 8.8585446413953 5.9712723551868 9.6132211634776 4.1729066706383 6.7746009898246 3.8456151844343 4.8359037060531 7.9796166101062 5.6126346389506 5.9335459342263 6.1550544563924 7.5975507443117 7.2261669202722 5.8551577231507 7.2002982402721 5.8329390386695 6.5616507964363 6.318516277133 6.1619266258973 8.1161507654118 6.0914633971208 7.4613211518136 10.44002636375 5.8396391820631 4.9694234094281 7.3024551295433 6.9806114478889 12.514967986486 6.7329177118855 9.0938578730985 7.2194997880165 9.3507109042656 9.7675497235364 6.2032003611621 4.2780677875642 7.9344033567837 6.830063712592 6.8214273911053 6.7959364939699 12.268231224169 8.2454803892655 5.2619498834692 8.0893839673777 9.656658014514 7.8764395256976 7.911015233285 6.9578577316181 7.4156611564516 6.5065724765627 4.51925216187 5.5971158945041 4.5479934849434 7.3047569867201 6.0782012027233 6.0478078798151 5.1785477888402 5.9182585959009 6.3245186209378 6.6776734530287 6.7895512300407 6.2485541869588 4.963337527219 4.1481314026968 5.1663058349228 7.0488613562457 9.2987681813078 7.7105794625653 6.7511764888346 6.9640909359643 5.5062558631997 10.989460342874 5.5062930718543 11.309395218232 7.7264248686516 4.0242227689429 8.8655347254088 7.9708190129003 7.6997690895825 7.9068911389483 6.8661603163817 5.7165282419748 5.6392835695537 5.4213119492408 7.1193546952042 5.9678241383072 4.4204699611257 5.337268216652 4.5275235175318 5.7524187264884 4.9165809691871 9.1637885663758 5.786145986026 7.3080079892085 4.8970226568279 4.8067587300218 5.2307557139716 7.2432627962309 4.4824321588359 4.4042629985221 6.8649884885375 5.2401422804445 3.8829619968105 5.6879500179361 9.0983197498361 8.2440299659709 7.0450227546141 4.6153031300776 5.168551638379 4.4794760876149 5.8183042938314 7.1527527173365 6.1225544115859 6.6748538748476 5.8569550321937 6.0796199875477 6.1909227554115 5.8972629576415 6.404181831956 5.9723644173932 5.6110744631892 5.969794036922 5.8823626499023 5.741450222805 5.8377329982547 5.8442481151852 5.813736234141 5.8571170053139 5.8456291168561 5.7719210136128 5.8200075610908 4.286816150019 6.1231637801465 7.8387230220977 4.9062292266553 10.375040509619 6.6789556891295 6.1398827205767 6.1268777851027 6.5185509841908 5.5182812139404 4.7188051141798 4.8668781744349 4.7574712826238 5.6401991112299 10.114792087014 9.3453068362126 9.0028881264516 9.1193624291436 5.3906653447669 3.7523870647023 5.0275786094204 5.2781387198433 6.2933384280062 5.6217459959852 5.779395917496 5.0136998873037 6.1267156154844 6.9328921356962 6.567692201474 6.5638931972594 6.3902143407517 6.1177011123465 6.1013678177285 5.4084983937212 5.8075706948044 5.7994795531868 4.7058672623953 3.7731922202964 3.4168209911437 4.9693345577384 4.3926579430972 6.4927529615828 5.8996227654018 7.0727370105702 6.3323547770385 17.00392872718 13.351184757623 4.1684349995757 4.6337547287711 7.1935035494241 5.355147426456 4.0221564457749 4.2138375367069 5.3585239379363 6.3521904761179 10.045100416627 6.5092138882197 7.7294161100079 5.599241251147 5.0100266202661 9.9577275729581 5.0730656204934 5.4728144050879 9.85690246766 5.4359255267742 4.3267378880305 6.6993407761963 7.5097770606662 5.2084458778324 4.4499618303287 4.5502511070165 6.4299722255581 4.258127962196 5.0358906708663 3.7661321569986 3.9453478776448 4.3086011549553 8.4825150611593 4.935202773826 5.4810296417487 4.8211896116828 4.9823245735803 4.5608453602152 5.6323574415163 9.2735317872781 3.8410742905092 6.4270490640979 3.6541692732187 4.0592569042455 5.0934739579212 4.4500852890154 3.8858081571008 4.5200243538608 4.5538690398722 4.3871445267694 5.127120613188 3.9442051558731 8.4343136959232 5.3302779785622 4.0215321472159 4.3753492085604 4.9523135857367 4.9233228935442 6.3911101583358 6.6138587184052 5.7028847183052 6.4531075733284 5.7267250743014 6.0180921215553 5.5609012896677 5.3794414617727 5.7387174496988 5.6615833294715 4.9329126462757 5.3962032821947 5.8373484988796 5.6215707737008 5.3086618747053 3.5577209702205 5.3444084950436 5.6874973744414 4.9213379064054 4.6793295782821 4.011197205863 4.0772141540221 4.0420574062579 4.9899642978755 4.0027905965796 4.7281058957982 5.5963276235383 11.57358159776 4.5542206395524 5.2519639094219 5.0815083162531 9.2543813063976 7.7849078357248 3.9622169886842 3.8257701573189 3.7346761845457 4.7009456776651 4.9832504236183 16.580225307943 3.7780666555263 4.2810356510795 4.7222686422437 3.6476154867114 4.6165319386303 5.6135264825322 4.7369943729174 4.7472590841961 4.1635989865275 5.2019756792523 4.9077210598283 4.2171378673153 4.9387258049736 3.6009520115541 4.0700546651216 4.5734065594835 4.5000843778317 3.6556987553948 3.8672890131036 3.640445649931 3.7548445254412 3.7501372193859 3.7911318795612 3.8256845740588 4.3580648968244 4.3227711228221 5.1359466913535 5.2982565612596 3.8735225714161 3.6460969437311 3.4821639302404 4.5412950309071 3.6362944209774 3.7052375743553 3.7384776395549 3.7458200700693 3.6538419978926 4.261373805278 3.9806059431139 4.7994419404209 3.6107881874698 3.7534917899786 4.1413805723018 4.0683719851083 3.4434869010132 3.428217654794 3.7425972555139 3.7213625408048 3.6734117476924 3.7395391496501 3.5083483007275 3.6484178842905 3.8884725144573 3.6691326082647 3.949192940803 3.7005134571478 3.6879276583107 3.4856748272413 4.4667943975445 3.6116479291498 3.6530889324549 3.5769064677876 3.4415901336171 3.4266591774011 3.5048848023696 3.6207694670282 3.9221668789086 3.9350281336453 4.523107123813 3.6268405233779 3.9655403205215 3.6101140449048 3.6263750313623 3.7691918278064 4.0494069086574 3.7605651796181 3.6703793886059 3.6545279978568 4.9927424447063 3.9027456295345 3.9688488549519 4.2178956545351 3.8285379475965 3.5207393985282 3.4592601718393 3.511081676935 4.3608423070131 3.5648477519607 3.9035252293787 3.6962624690455 4.5905279477506 4.0731406742661 4.3593739778026 3.6301279217543 3.499104301701 4.3860907359387 4.4905358033857 3.7826316486041 3.6557942090251 3.9860972083655 3.6535578390288 3.9844786748945 3.7764738747759 4.4172777279933 3.6065917266812 3.6864188698017 4.5742923459758 3.7109109310885 4.5502161144794 4.0946837016044 3.8372221509317 4.4627627763824 4.6033798275157 4.3125968814879 3.6473627345412 3.8540482138792 3.5209626738954 3.4626706948389 3.7372720591663 3.6945438358413 3.8286048025848 4.5086710841338 4.1461580466358 4.1324826794763 3.9801376133488 4.1183660270429 3.8961423547685 4.4319956139802 4.3409251358629 4.3846637165373 3.9027801959809 3.6470556857413 3.8745426894544 3.9580399020003 4.3770346476599 3.7803152283418 3.5926454074457 3.8133025744169 3.9695499853998 4.1322394118972 4.0102663452886 4.3127527892774 4.3673785611548 4.380042873597 4.2263916950979 4.2639079390537 4.6169383075168 4.5029804714249 4.4944048191271 4.4100514578412 4.5649273975406 4.6216360070173 4.5349993331332 4.4527838433553 3.7634708687404 3.6360366443249 4.1938052869788 3.8562378174811 3.7689625068568 3.9406039233225 4.0189743293659 4.388395003438 4.1669250233936 4.246680045088 4.3784348108815 4.1854179698639 4.109240959071 4.1836892966377 3.9260056020914 4.1478462900561 4.1224384607148 
SCALARS 150.00_1.01 double 1
LOOKUP_TABLE default