# vtk DataFile Version 3.0
d-2__ created by libgimli-v1.1.0
ASCII
DATASET UNSTRUCTURED_GRID
POINTS 570 double
14.5	0	0
14.25	0	0
14.386963504964	-0.201738469428	0
22.399299936458	-0.310870122736	0
22.129824335287	-0.229914148082	0
22.126320781198	-0.518791771445	0
8.472303742627	-0.591754876635	0
8.780507935475	-0.76092407121	0
8.82173151259	-0.349253271447	0
18.663262297679	-0.667179415955	0
18.934786529245	-0.453308328646	0
18.636898038907	-0.29588182328	0
4.016904362632	-0.85330676142	0
4.076038737616	-0.331410355179	0
3.713721571226	-0.470767763626	0
1.89953779852	-0.269343012166	0
1.633800503821	-0.203067612233	0
1.644492760828	-0.441295523531	0
4.368408037607	-0.250833874131	0
4.337474161742	-0.544420985055	0
4.67745607622	-0.378433532554	0
1.406172533733	-0.772361039307	0
1.913288206557	-1.218576310882	0
1.90687689783	-0.651895683444	0
2.5	0	0
2.25	0	0
2.347047126858	-0.185539804102	0
1.374000926997	-0.300418771701	0
1.25	0	0
1.114902662369	-0.201591505098	0
1.067401015567	-0.470108640981	0
5.75	0	0
5.699780065382	-0.324747799653	0
5.924584257371	-0.172748359932	0
0.883560935405	-0.231136840652	0
1	0	0
9	0	0
9.117836368049	-0.253904480787	0
2.625577516194	-0.346770599322	0
17.859079774019	-0.943547525024	0
17.535029634209	-1.703182852412	0
18.338018094476	-1.366069799339	0
19.932263871771	-0.826489183604	0
19.881635677668	-0.346204516721	0
19.622287080959	-0.573770479943	0
1.5	0	0
1.75	0	0
23.25	0	0
23	0	0
23.109690227386	-0.220340974338	0
2.75	0	0
2.142562771237	-0.172460438312	0
2	0	0
23.332392704446	-0.202507275941	0
23.5	0	0
19	0	0
18.75	0	0
18.888143078348	-0.195773419804	0
2.90152418742	-0.185685383897	0
7.612175045312	-0.180627982114	0
7.527150943175	-0.401430797998	0
7.881917737402	-0.30462800112	0
25.630635194756	-0.512020961038	0
25.243766894324	-0.80097755811	0
25.758031115142	-0.952821630144	0
3	0	0
28.84859809239	-0.201276387394	0
29	0	0
28.75	0	0
4	0	0
3.835807353334	-0.199536243303	0
3.106904732949	-0.178783649348	0
29.25	0	0
29.092446172194	-0.305987136665	0
13.5	0	0
13.667851890428	-0.185102765244	0
13.75	0	0
3.75	0	0
14.407363653886	-0.441423674912	0
14.125469935998	-0.279652141152	0
4.25	0	0
5.061980176718	-0.407989246181	0
5.335512032876	-0.269401530321	0
5.113979852892	-0.173834924157	0
11.882046000841	-0.812345557852	0
12.478640631525	-1.146569360669	0
12.244190771573	-0.565936619511	0
3.633270844505	-0.195395238442	0
14	0	0
18.378272976509	-0.514977451159	0
5.5	0	0
9.619519097921	-1.16461851757	0
10.030576753886	-1.587265312651	0
9.961661342999	-1.070235523667	0
5.25	0	0
5	0	0
13.157975569138	-0.830425793913	0
13.83833027638	-1.238601004239	0
13.671302359608	-0.710707966059	0
11.325917093147	-0.8366783502	0
11.612143285947	-0.506264798476	0
6	0	0
7	0	0
6.83842404292	-0.188923754932	0
7.11236984822	-0.391746146843	0
6.631875629497	-0.169178192832	0
6.75	0	0
3.21002197083	-0.595267231049	0
3.445510026908	-0.608065324465	0
3.362318141622	-0.306501255187	0
6.120159502895	-0.164221934939	0
4.538525595924	-0.906226152762	0
13.233775457127	-1.737244787017	0
4.5	0	0
16.138065841822	-0.472802517973	0
16.126746690205	-0.221608117926	0
15.859319180798	-0.326402762318	0
26.080401003391	-0.227842452866	0
26.25	0	0
26	0	0
3.019224421113	-0.401469974918	0
8.234901607028	-0.35771789179	0
8.518285578354	-0.242327591839	0
8.328777073389	-0.153008859619	0
7.25	0	0
7.400656881666	-0.195280611572	0
7.5	0	0
5.385509485898	-0.709154879541	0
5.948697127931	-0.745234910621	0
8.75	0	0
8.5	0	0
8.25	0	0
2.214249105773	-0.404278959534	0
2.896561357202	-0.792481120253	0
9.25	0	0
4.920911116561	-0.192028847294	0
9.651670336652	-0.200847798694	0
9.849824537955	-0.19917205686	0
9.75	0	0
10.095049354068	-0.315754204277	0
10	0	0
3.25	0	0
6.738406513564	-0.710129601907	0
7.121614580011	-0.943026074581	0
11.345829942703	-0.314788260019	0
11.25	0	0
11.104427225455	-0.188863495516	0
6.052412255932	-0.372556729023	0
6.373371846535	-0.274163514827	0
10.25	0	0
10.380281579003	-0.241092027437	0
10.5	0	0
10.75	0	0
10.909079077441	-0.189427130481	0
11	0	0
6.25	0	0
6.5	0	0
4.75	0	0
3.5	0	0
10.672815698565	-0.318467932684	0
10.772487906066	-0.787092734739	0
11.020900486567	-0.439266778492	0
8	0	0
7.75	0	0
11.5	0	0
11.619450354737	-0.231443672836	0
11.75	0	0
8.139317726831	-0.163309591658	0
12.25	0	0
12.158949464947	-0.235415698299	0
12.412455385193	-0.275030800337	0
12.929165084344	-0.221336108042	0
12.686337592177	-0.258437422252	0
12.900449535554	-0.462768612232	0
12.5	0	0
9.405755833308	-0.325979504745	0
9.111697192308	-0.594170467817	0
9.457257345083	-0.753685223931	0
18.101369157139	-0.618560521812	0
18.336839281097	-0.861122419318	0
10.385948631267	-0.570640149046	0
9.5	0	0
13.411260455969	-0.342646276848	0
12.643108055516	-0.590179775368	0
13.137744715761	-0.195204172124	0
13	0	0
21.25	0	0
21.358341816502	-0.326561417551	0
21.5	0	0
13.816492716597	-0.40394453634	0
20.25	0	0
20.423452336785	-0.313445603959	0
20.5	0	0
17.789350393153	-0.390447709085	0
17.987794057246	-0.401472255242	0
17.881276545163	-0.206424156589	0
19.564465692234	-0.270867872644	0
19.290725118801	-0.49926248604	0
16.392319441256	-0.29915360323	0
19.443730892406	-0.923508713428	0
20.457987075478	-0.803203365193	0
20.167450719332	-0.505159975143	0
0.103762538371	-0.253013629949	0
0.267057015134	-0.483604909932	0
0.374713194419	-0.2320817565	0
13.25	0	0
17.415572543912	-0.230682214253	0
17.5	0	0
17.25	0	0
18.108153655084	-0.208141099276	0
18.25	0	0
18	0	0
15.75	0	0
15.544586046819	-0.246453491997	0
15.122708481244	-0.193620038745	0
15.25	0	0
15	0	0
19.75	0	0
24.149237782749	-0.319013340846	0
23.842766599446	-0.577371105011	0
24.183995039967	-0.73159476451	0
13.871646321742	-0.17394291424	0
23.862588150518	-0.245417872715	0
16.84024277193	-0.203626765466	0
16.704049384397	-0.435508179396	0
17.112673188265	-0.38804641709	0
24.75	0	0
24.832880292394	-0.290571430318	0
25	0	0
16.40158555625	-0.755912194683	0
16.850299990829	-0.757941865332	0
17.75	0	0
23.567455674596	-0.325197491724	0
16.25	0	0
16	0	0
22.645812614293	-0.197864648876	0
22.75	0	0
22.5	0	0
16.75	0	0
17	0	0
24	0	0
26.914424714815	-0.337869958787	0
26.621963281699	-0.624626679172	0
26.977877660759	-0.778408201088	0
26.622424322919	-0.264588309935	0
19.34462271879	-0.199329831305	0
19.25	0	0
19.118057075065	-0.225686869553	0
19.5	0	0
26.75	0	0
27	0	0
27.5	0	0
27.604422363523	-0.298869962794	0
27.75	0	0
17.650384190064	-0.227839036584	0
18.343198956448	-0.236734208617	0
18.5	0	0
24.25	0	0
20.143897114391	-0.233773711865	0
25.5	0	0
25.25	0	0
25.344389320279	-0.31693710653	0
21.059546193318	-0.24845941382	0
20	0	0
25.842927934822	-0.248287716678	0
25.75	0	0
25.613904645132	-0.216025146631	0
21	0	0
11.763551406169	-1.481607093928	0
30.981104050195	-0.5526690913	0
30.873880294509	-0.217692518774	0
30.706626759758	-0.34945139905	0
20.75	0	0
20.85240828135	-0.178025243856	0
23.75	0	0
20.66289882074	-0.189089155251	0
30.204950808504	-0.791758966623	0
30.715535843381	-1.149995259266	0
30.543724897762	-0.572259098027	0
30	0	0
30.180216671806	-0.343473673313	0
30.25	0	0
23.229584388362	-0.458653998547	0
29.5	0	0
29.623391954444	-0.322069028408	0
29.75	0	0
21.618913855927	-0.233585823579	0
21.75	0	0
29.348490380579	-0.521100538161	0
29.36294710412	-0.230601226356	0
22	0	0
22.25	0	0
28.25	0	0
28	0	0
28.129259193923	-0.314252106503	0
28.44374413871	-0.484576386004	0
28.100199615755	-0.812038297775	0
28.649230646972	-0.871769248311	0
28.618403654115	-0.227691192115	0
28.5	0	0
28.387848605749	-0.205892081491	0
29.054768525933	-0.708603081552	0
29.344906532636	-0.846887322836	0
26.327430876245	-0.35930637997	0
10.349120516034	-1.04150119828	0
10.894920134778	-1.514321070539	0
24.59640839418	-0.191760546865	0
12.75	0	0
24.5	0	0
13.102881121377	-0.411296235356	0
25.099388239946	-0.214879887129	0
25.97986022697	-0.52841375324	0
24.398993403151	-0.196312410538	0
17.860840746535	-0.577367743328	0
17.566481510048	-0.529340016102	0
26.5	0	0
16.637148248735	-0.188015807345	0
18.183918302467	-0.396443618316	0
27.159348252167	-0.205297590358	0
27.357530053515	-0.198815038154	0
27.25	0	0
15.060354649709	-1.112587998155	0
15.51532665618	-1.043792149387	0
15.178150912169	-0.713100616689	0
10.051363365948	-0.719159376333	0
14.661248691948	-0.27865166374	0
14.75	0	0
27.868836823455	-0.217301839861	0
31	0	0
30.75	0	0
-0.020273477909	-1.415389842481	0
1.054972770973	-1.487485199502	0
0.512583677021	-1.0438154777	0
0.75	0	0
2.361419414365	-0.794513604096	0
29.890297721653	-0.2433406165	0
30.473599299501	-0.238575611274	0
30.5	0	0
30.660802173874	-0.161931182737	0
28.783812899585	-0.467926883932	0
4.937022539393	-0.72440615077	0
6.696914540879	-0.380672503721	0
7.434272221796	-0.695675918868	0
15.339606453815	-0.166204802571	0
15.281953315711	-0.388999642276	0
11.893544445085	-0.335972898148	0
12	0	0
9.753796445798	-0.478866225926	0
7.720012958977	-0.638314519759	0
21.871398197179	-0.313006985103	0
21.615176662754	-0.521922347305	0
21.856785525528	-0.665128848631	0
20.792152536902	-0.448319093295	0
21.109577821412	-0.527879642114	0
21.360297691811	-0.734200004244	0
15.547854961707	-0.580173571081	0
24.496861814148	-0.467031445896	0
25.067351422649	-0.463427753535	0
24.81263825963	-0.684738154192	0
22.865620821195	-0.218348593093	0
23.443705587002	-0.773171720633	0
27.277617447467	-0.489224417775	0
27.863714790534	-0.471681393437	0
26.239117668995	-0.863279739365	0
29.896797054636	-0.547765129844	0
29.612773839625	-0.699757135752	0
29.867172666547	-0.87444432816	0
29.610354212963	-1.521444655905	0
29.59548165142	-1.071765512911	0
29.115129171034	-1.220660174798	0
31.345359428525	-0.458952144926	0
31.144859415042	-0.241304201582	0
15.919565295974	-0.746550096707	0
16.063006820294	-1.289595303187	0
16.5	0	0
14.900855313538	-0.178071167744	0
14.161016743654	-0.72559708689	0
19.011498044983	-0.834202892304	0
16.760433281999	-1.263698818643	0
17.280361389946	-0.931704507314	0
-0.627742252535	-0.296285438777	0
-1	0	0
-1	-0.5	0
0.625738545692	-0.228405936136	0
0.5	0	0
3.313957665883	-0.865581185485	0
3.619156095452	-0.800599314657	0
[...]
CELL_DATA 986
SCALARS 100.00_0.12 double 1
LOOKUP_TABLE default
6.6451624606572 6.5312264719955 6.4367214638968 5.8724509443209 5.1974432815128 6.9264371771393 6.095871582928 4.9825652300282 7.2332288891581 6.8302210649559 6.443264351723 6.6455817700135 6.6701570667791 7.3583478626364 7.2324325621857 6.8515250992645 4.0319984969006 6.1059798654005 7.3892452196448 7.2016716666167 7.1402663267641 7.2996168598127 7.0061553225817 7.1739688899364 7.4139863979309 6.7547238228619 7.0889707953943 4.9353828844522 6.6713151017103 6.5256249178575 6.2535840600638 6.6205685510533 6.7104379554813 6.9528313727259 6.1238747920072 6.7321470982742 6.7844773864012 6.3703395863755 4.9697755823606 6.0317949424525 7.4267212966687 5.7560781974393 6.6656017618974 4.2250586692507 6.31517911912 6.3600041351892 4.9818432816096 5.5335183712615 6.5782458197393 7.0590134355679 6.5638969163951 6.2929317613771 5.102944623071 6.8180566622091 5.3601035506888 6.8728890842947 4.0900489406576 7.231068009408 6.6449902696917 6.3744867811957 6.5788318096943 6.2901429685454 7.6373960314885 7.7174725189464 8.0944035543236 7.6081493852265 5.5376462266218 5.4630284049209 7.4745749488891 6.095746486867 7.8030700508536 7.3563021388177 6.7549085864117 7.4489181362474 7.121762286959 5.6171821895209 7.5539263371527 6.6540702319151 8.0218645309551 7.6813562597963 6.6077537182801 5.0421053863533 6.7082733879704 6.4463848812483 7.4781386479971 7.7861152748119 6.7539577876449 7.3129219929676 7.3959345178681 8.1927069042429 6.4116833946407 7.0375623567612 6.299368052493 7.0733153962225 6.3749767708504 7.6663773701324 7.210742638364 7.0785119215512 7.3469894698972 6.6990855432428 7.3341345527833 7.4532425556453 6.8410917340657 7.5400852264877 5.8758304226517 5.3491414225576 6.8140877433028 6.7450917497283 5.9487012820589 6.980249855239 6.3566707191225 7.217481096195 6.7596240520743 7.2842085180876 6.3913651514146 8.0000112149404 6.7708063652951 6.9360496384534 6.5172385885104 6.6243085436131 5.627900875461 7.2349774408336 6.3462528638279 6.0409840557542 6.5585199863352 6.6500764347731 5.8511103014553 5.6678772039321 7.1107891926298 6.1777742453915 7.3511107348154 7.5957273906538 7.7098060997264 7.1055626639948 5.5567978823198 6.7238150446555 6.2392554686587 7.0747723957272 7.3873497041496 5.966025562504 7.0464723879953 6.2262540209405 6.6998228890384 6.7095841496648 8.0263827845252 7.4106757035466 6.8264551946584 5.1698581137419 6.6458340413296 5.688852783636 7.7472201361041 8.2219995507489 6.3407716719284 7.6285326357125 6.8958983657673 7.175908675671 6.9709918383443 6.9259332791484 6.5590925956039 6.1292007829912 7.8045325043427 6.6187022011758 7.2372115318841 8.0475192345663 6.8452213526125 7.5214301677787 4.5871447664503 6.244406015824 8.3228418090563 6.965290375633 8.008611059427 7.0431101658239 5.0607287788362 6.5048185118929 6.6197103995668 6.8673609937002 7.8891787329869 7.5411631257763 6.1274433723903 6.5532848903476 7.2028350191883 6.5538686508228 6.8900419268517 5.1168019512766 5.3280082402994 7.3252915634784 6.6324952408119 7.087901085484 6.1202532419831 5.1955610658957 5.6781857474424 4.6588964668192 6.8403728822094 5.0426938070148 7.1505007917368 7.0848283935371 4.8826869245093 7.7823578369481 7.2615961857298 6.3787773979797 6.9193145682208 6.189876556625 7.189818930427 6.9185226457461 6.9665514182422 5.7591386197439 6.3759605839537 6.8294015632533 6.4622852443992 6.7509094394105 5.9385727043683 6.9108546401899 6.1554008908292 6.6340576288293 6.4694283537888 6.5081030424202 4.4741232743761 6.6419966574936 4.8173461969434 6.2180961409776 6.992206560886 6.5733938929885 7.3151515638256 8.2887603567503 6.6925111682179 7.235510036514 6.5784092669023 6.7635295123205 6.4345307867499 7.4167785372916 7.0981222179683 4.3918172808265 6.4897415140854 6.4816634094122 6.5253545805625 6.6747688923269 6.7977698896211 5.3275701460891 6.8426235528791 6.4835308669651 6.4343183122194 6.0516316364187 7.4831934775927 6.3426079038169 6.9869878298348 6.7850059539983 6.0805781274973 6.957254083943 6.0872672399622 6.585954497685 5.7727641760398 6.5987654567175 5.2199735220767 6.3499133990193 6.9805076291252 5.850153282579 6.8948545715509 6.8692164213703 7.271214131953 5.4902275954237 6.3751138191069 6.3783372017654 6.7885530016528 6.5280140529772 6.0404632572386 7.7177550586565 6.1731839192354 6.931139938943 6.3389801265779 6.1434000795134 6.1814501887841 7.2250072223528 6.5954025724496 6.8189939211099 7.2659178356927 7.5473155448768 6.6703051073264 7.1128954407141 6.6965558503227 6.7769891466927 5.8101106907402 6.9137757345619 7.5691908420915 7.0778189935487 5.3639447838645 7.2324377664948 6.7722981460556 7.3806446399053 8.2344438689264 7.3639717754599 6.6673124030041 6.2333721082799 6.0337829486899 6.9885663271019 6.8482450249956 7.7716838083414 6.8276115914384 7.6109095492381 8.2068777543949 7.5244701465354 5.9958119273943 7.9813672017024 7.7372833290561 7.1091054877717 5.5172023949259 5.9517722623321 7.4856344470576 7.2552404574703 6.5847822332197 6.5920291063528 6.4190687421158 6.5455483869026 6.5955769798767 6.6489412662884 6.418185278712 5.8846969570185 6.723123317927 5.6928135874413 6.2353954662598 6.5489971409932 6.2324785292139 6.6175476262697 6.5267709506987 6.3048765198175 5.9353541228134 6.2185721268214 7.1359260046073 5.2161351939401 5.1662800129924 4.1373972251693 5.7800493684374 5.6528449661868 6.6035678011664 6.709046606705 6.1863536749831 6.2701049723976 6.1837496412504 6.5657893523914 5.7530447717933 6.857719617394 4.4811528448949 4.8974324189886 7.3677780162329 7.4044432628729 7.0115173925243 6.5384167619718 7.2756587111672 7.7105722883765 7.2527861180723 6.3248661075811 6.7222683093049 5.1424050040234 6.6251172808312 4.8054882623004 6.126938859429 5.0822279941914 4.9550552961747 5.9965423840753 5.1418827796438 6.4146012214603 6.0840112929409 4.5126419253077 5.7962702048427 6.0731772990024 6.5967980871449 5.3353817470398 4.8384247935937 4.5257327065044 5.9322360089895 7.227314647408 7.2210090934334 6.409327575233 5.5323897432661 4.9744190946916 5.8419621311783 6.4018635882895 5.5555478588412 7.6213642231503 7.3605184361697 5.3525542640777 4.5799309938803 6.2877686799681 6.3342582626255 6.6929593848909 7.6928953274432 7.6033183614344 6.4796848532828 6.7710380558712 5.3391160625087 7.5571420015359 6.1748756755092 6.0704327411218 5.2096676528737 7.0659259131892 6.1528760967118 7.3981671170543 5.992133988005 6.8652002904667 7.2841383439456 6.3417176723375 6.9739893636822 7.3258873046303 6.626172119648 6.6521013171819 5.0630854938474 8.1566410806645 5.207001012692 6.5977698813991 7.1232129066732 6.829462401923 7.1012221631242 6.2337251720636 6.9775342823207 5.8532214049473 6.3077065769004 6.5202863568637 5.6314314478781 5.526646415107 4.8266318866389 6.026223948262 4.7454455270894 6.6769419906278 6.3378880498237 5.6113221831347 5.7009940206058 6.4642671856095 5.3537763184752 5.0704846223662 5.6894719283929 5.1676969296324 5.489643791233 6.9461155989259 6.4411108024288 6.7578678950047 5.6574879199029 6.4006979532222 4.5298152794226 6.1583515902635 4.1775444499664 6.1334659616053 4.4869674702317 5.8693713238007 6.4843918843203 6.2179214341847 4.7119527623997 6.1688330908481 4.0461576263351 7.3439140699223 5.587928618441 6.0389836893822 6.9236629350171 7.0009971720992 6.7804773236027 5.4425298645255 4.5909956045727 3.8247725378538 5.6127978177195 7.1060378026929 6.0197949488927 6.4237138862367 5.8288622146327 6.4031319339845 6.2065858087902 5.9536882529236 5.4467935502558 4.1180348420183 4.7034595568087 5.703579167397 4.6233502762799 4.1589610585839 4.7376501610678 6.3572114987392 5.175961232787 4.1480909939897 3.7511693559546 7.0197325337934 6.1581919785084 6.0701545331073 5.4443102542758 4.4524376124915 5.3315106258438 4.487393826588 4.8228920579412 7.5492088996217 6.5795894175611 5.748365698399 5.9412436259477 7.0878609209557 5.6586077497671 6.5728178249665 3.9370327733547 6.3015930752785 7.6336976634009 7.062465447173 5.9166020190629 4.9197770767288 4.0560330516634 3.5288050012151 5.3297325332009 6.8864797853861 5.4253432871022 5.4489252182975 4.6218287528855 5.3571545575237 5.8250695707924 7.1886500310135 4.4885910719198 6.5037590426442 7.1867298589309 3.6514927965701 6.3233288325625 8.5296147657858 6.2642695584328 4.5424321134491 5.7327342988173 6.3041319049977 5.1345224223606 4.794391495644 4.2825358215181 6.6022787560317 6.5145681065144 4.3187990671262 5.6857895408551 6.0866939909815 4.924514711864 4.4420863588502 4.0993773560986 6.4631590345169 5.9436935907339 5.5936660361427 5.5706162961194 5.593683204838 5.6480773622153 6.5256636086414 5.5309374218349 5.4903604180201 6.3697872579445 6.1017932553471 4.2117846114525 3.4041350491374 6.4133820101353 4.4807637818532 7.1247337657764 6.370125062523 4.4206455175992 6.2302597251252 3.4783304731385 4.6904252028772 3.3064338335699 3.7796003314414 6.3823867582277 4.5239739502672 5.4875468626615 4.4721647580137 6.2154671039826 5.9428782264553 4.9649563346785 6.0007496553989 4.309905452499 4.5955884375329 5.1577525400738 4.7377993024535 5.6994773071214 4.5352619242128 5.6328475743624 7.1070391006492 4.237528579273 4.1053701512365 5.6353440793094 5.1579000394304 7.1742622232379 4.9403038637905 6.8546260959618 5.1038313609487 6.6468915176467 6.2038933021319 4.382488538071 3.5289738989734 5.7525568896229 5.2867033564911 5.3743948166311 5.3920761207269 7.757590729416 6.6447727039353 4.2110892779748 5.9658996274405 6.5542233786219 5.7701020101423 5.8169899396107 5.3804208550564 5.7192716629523 5.2532234344705 3.562490323754 5.2227771249372 3.6278013287479 5.9028468524926 5.5768581518892 5.5240175751224 4.6436205780926 5.2469395756706 5.7481707793254 5.6136882089825 5.5943761983752 4.6612139044308 3.9250988610037 3.3885279904375 4.0544578254573 5.3611485483313 6.3826364419754 5.787993599376 5.2210822298781 5.0159640711412 4.2364913881174 7.2689246952021 4.421392636637 7.3947666492248 6.4985690120241 3.3599385498394 5.7272654333148 6.324850436048 5.699705303477 5.8570659224454 5.2707960334528 4.6186758297517 4.5762472407271 4.4537418286651 5.2821226518225 5.4040171180348 3.4435674835106 4.0264486259492 3.6006742640311 4.2267317548094 3.8524303031323 6.0293979104845 4.6780062694274 6.0442496450769 3.8562525502464 4.071866694732 4.3728588884903 5.7912754794751 3.7184475346046 3.7845839241561 4.7686893075183 4.2852374097637 3.3736311847761 4.5472963940934 7.1742697303777 6.2975128006555 5.20543578073 3.8221530832287 4.1419750247669 3.7643192301916 5.384698109781 5.2001007129607 5.3939063415285 5.2604085435156 5.8693732875701 5.6890619016817 4.5610072844893 5.6861290344883 4.7014429279267 5.6264668395233 4.5362885897946 5.4285336448313 5.7462809052085 4.9513080856956 5.4231020592928 5.2636721036566 5.3951705052297 5.6177867251486 5.7072524936615 5.1047903710462 5.4588494591373 3.5774003375174 4.4528859808988 6.1667861782076 3.8409765943024 6.5663513401387 5.1623972602517 4.9123308408062 4.8624237891632 5.3936434667111 4.3910908138348 3.980874815356 3.9309189896802 3.9931689784545 4.1779033404934 6.3794035405519 7.4900347416312 6.8095312119397 6.8203228841675 4.0610472667475 3.3641905474483 4.3004166953293 4.6190965273268 4.8568673150531 4.3873381047246 4.5303840180659 4.0611562356578 4.6860187616053 5.1117151917994 4.8247655243316 4.8136972232592 4.7764684840702 4.9761681150132 4.5405075311525 4.3119320250622 5.3313180072053 5.2711445466268 3.9057222326468 3.2915467335112 3.1218428869567 3.8414841692376 3.5070325865586 5.149057317641 4.8052772954986 5.7518153673645 4.8025619760117 7.0528726965732 7.1640596318564 3.5282168022926 3.8255019702351 6.1722508020185 4.3436087754207 3.373012618887 3.4648338579359 4.210767120923 5.407045049297 6.9452985615294 5.2552147260757 5.7762485612194 4.3017724524769 4.3247839193585 6.905387018164 4.1535072744241 5.0579824459647 7.6261210674189 4.0614438011481 3.6191239880662 5.749602848997 6.070648702037 4.217600009441 3.8770139149545 3.6730164495189 5.0098564404109 3.6903237257848 4.0660269842068 3.2331918350474 3.1781282816228 3.4297615896688 6.8754079368348 4.0534194891715 4.3977532767898 3.9252437968881 4.1393099767553 3.7280946488453 4.6475784666839 6.4936549561402 3.2651422853936 5.0250580473638 3.1498681394838 3.4984967810014 4.1537032293598 3.6723412454038 3.3446103474283 3.5386723537128 3.7936551699518 3.6473706273241 3.9635104246791 3.4176228492159 5.7703628416184 4.1834677009367 3.331750514403 3.4383331344359 3.898753601954 3.7835986486667 5.3715463802441 5.3912799129533 5.3006604492759 5.5303031212857 4.9416451718631 5.2312300561842 4.6562495994191 4.7819219762836 5.2212574701653 5.0749240131393 4.3423123469487 4.6824608582378 4.744464608528 5.1923363395512 4.8463870245985 3.1349710810174 3.9713355781567 4.4606044553348 3.7704851155383 3.6370255271043 3.4378802057622 3.5014166500572 3.3487336555483 3.8263678027326 3.3099647874579 3.7402084091937 4.1333221049985 7.0018260555336 3.7186526464386 4.1533031862348 4.1616626209643 7.3494773088399 5.6047695811285 3.3723331823049 3.3575885723965 3.0628634127142 3.6253736334713 4.0349686650468 7.4206052676389 3.2860199328851 3.5322888199451 3.7588306084792 3.1545648645033 3.9598252802445 4.4070928798085 4.0728616122703 3.9794051831028 3.4907466219343 4.124182670635 3.7334347717915 3.3970848815152 3.9637175306761 3.1491621208758 3.3489911101809 3.7234589439714 3.8457694429266 3.0220092740668 3.2857788674496 3.1217104097039 3.1934705767794 3.1816676531638 3.0965045828179 3.1220909920264 3.7176019152941 3.5992594599959 4.3774933509324 4.499274288802 3.3701968020947 3.1888235193553 3.103152795727 3.9903137150661 3.2569416875249 3.204857864721 3.1692571120265 3.1945637600719 3.1906732558278 3.447730934537 3.3086248426407 3.9466969872123 2.9944190512215 3.2332346340925 3.5397670226928 3.4881272907055 3.0917311495356 3.0934487324591 3.1031474611399 3.2673872353605 3.1772211744295 3.1764636536902 3.1124692041244 3.1613880950887 3.2507253121076 3.1791453203537 3.4332243530703 3.2362514821547 3.3471881341503 3.0926251680804 4.0290461072758 3.045662395482 3.2952397509723 3.1235266662323 3.103205452943 3.1519970105211 3.1007871034806 3.3184103302045 3.3543736945367 3.2233397345355 3.6733073252242 3.196436022584 3.3965890781811 3.0317335493032 3.0875447063731 3.3148386867797 3.9797037887342 3.3929126567055 3.3017715755485 3.0574965187385 3.9571541256237 3.3748315345716 4.0436726118935 3.4709044948357 3.2046172306492 3.2392262765999 3.187958254507 3.1548631129867 3.6553441028811 3.4441831657308 3.4418385610909 3.5128802022461 3.6330625021826 3.519503681074 3.6844562872768 3.0751528073603 3.337478272315 4.3135057330177 3.8976328734433 3.7181849790605 3.3405785835298 3.917878343511 3.0854706136552 3.6407344942237 3.3903964655432 3.9738365753431 3.4140043169787 3.5876063991567 4.0921162664637 3.4967055301526 4.0124465826903 3.6542009113307 3.6833295408991 3.8539684329707 3.9332785883848 4.0199527731205 3.5666711182332 3.8918120614948 3.3363705877728 3.282039955823 3.3144556612474 3.3863272535217 3.6021818600966 3.8848927194076 4.0841056659583 3.9731435388007 3.5905219525193 3.8775848889663 3.9077212236128 4.106135451194 4.3805001845958 4.1604847674 3.589746919488 3.4719494334024 3.4600151202882 3.7324242125208 3.7641407916152 3.2373568564493 3.4588712135366 3.728048624779 3.4323778608568 3.6478496364359 3.4313703185025 3.8447343911752 3.8644325132999 4.0284418899443 3.8609590786659 4.2622831734956 4.2090018111461 4.0827653775179 4.0261017462423 3.9973210276487 4.1831444939425 4.1797732172201 4.2111836648735 4.1748257735645 3.726389724812 3.4552442374355 4.239459283348 3.8737895334122 3.7045006088224 3.9219039520161 4.0540736368363 4.2156333483006 3.861305154292 4.0415016938055 4.3226771255804 4.2549982380354 4.2078510443005 4.2994518228061 3.9757640261237 4.2779511102684 4.2475233928521 
SCALARS 200.00_0.26 double 1
LOOKUP_TABLE default