# vtk DataFile Version 3.0
d-2__ created by libgimli-v1.1.0
ASCII
DATASET UNSTRUCTURED_GRID
POINTS 570 double
14.5	0	0
14.25	0	0
14.386963504964	-0.201738469428	0
22.399299936458	-0.310870122736	0
22.129824335287	-0.229914148082	0
22.126320781198	-0.518791771445	0
8.472303742627	-0.591754876635	0
8.780507935475	-0.76092407121	0
8.82173151259	-0.349253271447	0
18.663262297679	-0.667179415955	0
18.934786529245	-0.453308328646	0
18.636898038907	-0.29588182328	0
4.016904362632	-0.85330676142	0
4.076038737616	-0.331410355179	0
3.713721571226	-0.470767763626	0
1.89953779852	-0.269343012166	0
1.633800503821	-0.203067612233	0
1.644492760828	-0.441295523531	0
4.368408037607	-0.250833874131	0
4.337474161742	-0.544420985055	0
4.67745607622	-0.378433532554	0
1.406172533733	-0.772361039307	0
1.913288206557	-1.218576310882	0
1.90687689783	-0.651895683444	0
2.5	0	0
2.25	0	0
2.347047126858	-0.185539804102	0
1.374000926997	-0.300418771701	0
1.25	0	0
1.114902662369	-0.201591505098	0
1.067401015567	-0.470108640981	0
5.75	0	0
5.699780065382	-0.324747799653	0
5.924584257371	-0.172748359932	0
0.883560935405	-0.231136840652	0
1	0	0
9	0	0
9.117836368049	-0.253904480787	0
2.625577516194	-0.346770599322	0
17.859079774019	-0.943547525024	0
17.535029634209	-1.703182852412	0
18.338018094476	-1.366069799339	0
19.932263871771	-0.826489183604	0
19.881635677668	-0.346204516721	0
19.622287080959	-0.573770479943	0
1.5	0	0
1.75	0	0
23.25	0	0
23	0	0
23.109690227386	-0.220340974338	0
2.75	0	0
2.142562771237	-0.172460438312	0
2	0	0
23.332392704446	-0.202507275941	0
23.5	0	0
19	0	0
18.75	0	0
18.888143078348	-0.195773419804	0
2.90152418742	-0.185685383897	0
7.612175045312	-0.180627982114	0
7.527150943175	-0.401430797998	0
7.881917737402	-0.30462800112	0
25.630635194756	-0.512020961038	0
25.243766894324	-0.80097755811	0
25.758031115142	-0.952821630144	0
3	0	0
28.84859809239	-0.201276387394	0
29	0	0
28.75	0	0
4	0	0
3.835807353334	-0.199536243303	0
3.106904732949	-0.178783649348	0
29.25	0	0
29.092446172194	-0.305987136665	0
13.5	0	0
13.667851890428	-0.185102765244	0
13.75	0	0
3.75	0	0
14.407363653886	-0.441423674912	0
14.125469935998	-0.279652141152	0
4.25	0	0
5.061980176718	-0.407989246181	0
5.335512032876	-0.269401530321	0
5.113979852892	-0.173834924157	0
11.882046000841	-0.812345557852	0
12.478640631525	-1.146569360669	0
12.244190771573	-0.565936619511	0
3.633270844505	-0.195395238442	0
14	0	0
18.378272976509	-0.514977451159	0
5.5	0	0
9.619519097921	-1.16461851757	0
10.030576753886	-1.587265312651	0
9.961661342999	-1.070235523667	0
5.25	0	0
5	0	0
13.157975569138	-0.830425793913	0
13.83833027638	-1.238601004239	0
13.671302359608	-0.710707966059	0
11.325917093147	-0.8366783502	0
11.612143285947	-0.506264798476	0
6	0	0
7	0	0
6.83842404292	-0.188923754932	0
7.11236984822	-0.391746146843	0
6.631875629497	-0.169178192832	0
6.75	0	0
3.21002197083	-0.595267231049	0
3.445510026908	-0.608065324465	0
3.362318141622	-0.306501255187	0
6.120159502895	-0.164221934939	0
4.538525595924	-0.906226152762	0
13.233775457127	-1.737244787017	0
4.5	0	0
16.138065841822	-0.472802517973	0
16.126746690205	-0.221608117926	0
15.859319180798	-0.326402762318	0
26.080401003391	-0.227842452866	0
26.25	0	0
26	0	0
3.019224421113	-0.401469974918	0
8.234901607028	-0.35771789179	0
8.518285578354	-0.242327591839	0
8.328777073389	-0.153008859619	0
7.25	0	0
7.400656881666	-0.195280611572	0
7.5	0	0
5.385509485898	-0.709154879541	0
5.948697127931	-0.745234910621	0
8.75	0	0
8.5	0	0
8.25	0	0
2.214249105773	-0.404278959534	0
2.896561357202	-0.792481120253	0
9.25	0	0
4.920911116561	-0.192028847294	0
9.651670336652	-0.200847798694	0
9.849824537955	-0.19917205686	0
9.75	0	0
10.095049354068	-0.315754204277	0
10	0	0
3.25	0	0
6.738406513564	-0.710129601907	0
7.121614580011	-0.943026074581	0
11.345829942703	-0.314788260019	0
11.25	0	0
11.104427225455	-0.188863495516	0
6.052412255932	-0.372556729023	0
6.373371846535	-0.274163514827	0
10.25	0	0
10.380281579003	-0.241092027437	0
10.5	0	0
10.75	0	0
10.909079077441	-0.189427130481	0
11	0	0
6.25	0	0
6.5	0	0
4.75	0	0
3.5	0	0
10.672815698565	-0.318467932684	0
10.772487906066	-0.787092734739	0
11.020900486567	-0.439266778492	0
8	0	0
7.75	0	0
11.5	0	0
11.619450354736	-0.231443672836	0
11.75	0	0
8.139317726831	-0.163309591658	0
12.25	0	0
12.158949464947	-0.235415698299	0
12.412455385193	-0.275030800337	0
12.929165084344	-0.221336108042	0
12.686337592177	-0.258437422252	0
12.900449535554	-0.462768612232	0
12.5	0	0
9.405755833308	-0.325979504745	0
9.111697192308	-0.594170467817	0
9.457257345083	-0.753685223931	0
18.101369157139	-0.618560521812	0
18.336839281097	-0.861122419318	0
10.385948631267	-0.570640149046	0
9.5	0	0
13.411260455969	-0.342646276848	0
12.643108055516	-0.590179775368	0
13.137744715761	-0.195204172124	0
13	0	0
21.25	0	0
21.358341816502	-0.326561417551	0
21.5	0	0
13.816492716597	-0.40394453634	0
20.25	0	0
20.423452336785	-0.313445603959	0
20.5	0	0
17.789350393153	-0.390447709085	0
17.987794057246	-0.401472255242	0
17.881276545163	-0.206424156589	0
19.564465692234	-0.270867872644	0
19.290725118801	-0.49926248604	0
16.392319441256	-0.29915360323	0
19.443730892406	-0.923508713428	0
20.457987075478	-0.803203365193	0
20.167450719332	-0.505159975143	0
0.103762538371	-0.253013629949	0
0.267057015134	-0.483604909932	0
0.374713194419	-0.2320817565	0
13.25	0	0
17.415572543912	-0.230682214253	0
17.5	0	0
17.25	0	0
18.108153655084	-0.208141099276	0
18.25	0	0
18	0	0
15.75	0	0
15.544586046819	-0.246453491997	0
15.122708481244	-0.193620038745	0
15.25	0	0
15	0	0
19.75	0	0
24.149237782749	-0.319013340846	0
23.842766599446	-0.577371105011	0
24.183995039967	-0.73159476451	0
13.871646321742	-0.17394291424	0
23.862588150518	-0.245417872715	0
16.84024277193	-0.203626765466	0
16.704049384397	-0.435508179396	0
17.112673188265	-0.38804641709	0
24.75	0	0
24.832880292394	-0.290571430318	0
25	0	0
16.40158555625	-0.755912194683	0
16.850299990829	-0.757941865332	0
17.75	0	0
23.567455674596	-0.325197491724	0
16.25	0	0
16	0	0
22.645812614293	-0.197864648876	0
22.75	0	0
22.5	0	0
16.75	0	0
17	0	0
24	0	0
26.914424714815	-0.337869958787	0
26.621963281699	-0.624626679172	0
26.977877660759	-0.778408201088	0
26.622424322919	-0.264588309935	0
19.34462271879	-0.199329831305	0
19.25	0	0
19.118057075065	-0.225686869553	0
19.5	0	0
26.75	0	0
27	0	0
27.5	0	0
27.604422363523	-0.298869962794	0
27.75	0	0
17.650384190064	-0.227839036584	0
18.343198956448	-0.236734208617	0
18.5	0	0
24.25	0	0
20.143897114391	-0.233773711865	0
25.5	0	0
25.25	0	0
25.344389320279	-0.31693710653	0
21.059546193318	-0.24845941382	0
20	0	0
25.842927934822	-0.248287716678	0
25.75	0	0
25.613904645132	-0.216025146631	0
21	0	0
11.763551406169	-1.481607093928	0
30.981104050195	-0.5526690913	0
30.873880294509	-0.217692518774	0
30.706626759758	-0.34945139905	0
20.75	0	0
20.85240828135	-0.178025243856	0
23.75	0	0
20.66289882074	-0.189089155251	0
30.204950808504	-0.791758966623	0
30.715535843381	-1.149995259266	0
30.543724897762	-0.572259098027	0
30	0	0
30.180216671806	-0.343473673313	0
30.25	0	0
23.229584388362	-0.458653998547	0
29.5	0	0
29.623391954444	-0.322069028408	0
29.75	0	0
21.618913855927	-0.233585823579	0
21.75	0	0
29.348490380579	-0.521100538161	0
29.36294710412	-0.230601226356	0
22	0	0
22.25	0	0
28.25	0	0
28	0	0
28.129259193923	-0.314252106503	0
28.44374413871	-0.484576386004	0
28.100199615755	-0.812038297775	0
28.649230646972	-0.871769248311	0
28.618403654115	-0.227691192115	0
28.5	0	0
28.387848605749	-0.205892081491	0
29.054768525933	-0.708603081552	0
29.344906532636	-0.846887322836	0
26.327430876245	-0.35930637997	0
10.349120516034	-1.04150119828	0
10.894920134778	-1.514321070539	0
24.59640839418	-0.191760546865	0
12.75	0	0
24.5	0	0
13.102881121377	-0.411296235356	0
25.099388239946	-0.214879887129	0
25.97986022697	-0.52841375324	0
24.398993403151	-0.196312410538	0
17.860840746535	-0.577367743328	0
17.566481510048	-0.529340016102	0
26.5	0	0
16.637148248735	-0.188015807345	0
18.183918302467	-0.396443618316	0
27.159348252167	-0.205297590358	0
27.357530053515	-0.198815038154	0
27.25	0	0
15.060354649709	-1.112587998155	0
15.51532665618	-1.043792149387	0
15.178150912169	-0.713100616689	0
10.051363365948	-0.719159376333	0
14.661248691948	-0.27865166374	0
14.75	0	0
27.868836823455	-0.217301839861	0
31	0	0
30.75	0	0
-0.020273477909	-1.415389842481	0
1.054972770973	-1.487485199502	0
0.512583677021	-1.0438154777	0
0.75	0	0
2.361419414365	-0.794513604096	0
29.890297721653	-0.2433406165	0
30.473599299501	-0.238575611274	0
30.5	0	0
30.660802173874	-0.161931182737	0
28.783812899585	-0.467926883932	0
4.937022539393	-0.72440615077	0
6.696914540879	-0.380672503721	0
7.434272221796	-0.695675918868	0
15.339606453815	-0.166204802571	0
15.281953315711	-0.388999642276	0
11.893544445085	-0.335972898148	0
12	0	0
9.753796445798	-0.478866225926	0
7.720012958977	-0.638314519759	0
21.871398197179	-0.313006985103	0
21.615176662754	-0.521922347305	0
21.856785525528	-0.665128848631	0
20.792152536902	-0.448319093295	0
21.109577821412	-0.527879642114	0
21.360297691811	-0.734200004244	0
15.547854961707	-0.580173571081	0
24.496861814148	-0.467031445896	0
25.067351422649	-0.463427753535	0
24.81263825963	-0.684738154192	0
22.865620821195	-0.218348593093	0
23.443705587002	-0.773171720633	0
27.277617447467	-0.489224417775	0
27.863714790534	-0.471681393437	0
26.239117668995	-0.863279739365	0
29.896797054636	-0.547765129844	0
29.612773839625	-0.699757135752	0
29.867172666547	-0.87444432816	0
29.610354212963	-1.521444655905	0
29.59548165142	-1.071765512911	0
29.115129171034	-1.220660174798	0
31.345359428525	-0.458952144926	0
31.144859415042	-0.241304201582	0
15.919565295974	-0.746550096707	0
16.063006820294	-1.289595303187	0
16.5	0	0
14.900855313538	-0.178071167744	0
14.161016743654	-0.72559708689	0
19.011498044983	-0.834202892304	0
16.760433281999	-1.263698818643	0
17.280361389946	-0.931704507314	0
-0.627742252535	-0.296285438777	0
-1	0	0
-1	-0.5	0
0.625738545692	-0.228405936136	0
0.5	0	0
3.313957665883	-0.865581185485	0
3.619156095452	-0.800599314657	0
[...]
CELL_DATA 986
SCALARS 160.00_0.64 double 1
LOOKUP_TABLE default
8.6521878989512 9.4607546965399 8.3237043989769 6.4995853706905 5.7149815157793 9.277355582646 8.9380698903857 5.9822680403425 10.139129405069 8.3994018538183 7.9241338109568 8.6822779931028 8.4001022734395 11.307888484524 10.209694815583 7.8311957522239 4.3515149542576 7.7285470847356 9.9752525642523 10.481463231295 9.7075842140565 10.077783701844 11.216547333255 9.9279630851624 10.805205627127 9.056912980031 9.3551394169414 6.3427248232899 8.613927301103 10.723563248977 7.166948144951 9.8015229417081 10.399415961797 12.447662841428 5.2327911241503 10.037446811453 12.47258533019 9.1028620392488 5.4787251145544 5.3098394744454 8.2720811933285 5.8454515102783 10.018999050598 4.5721102829678 10.15922050386 8.8692366659888 6.0233384383003 6.9165427867716 8.3811969539169 9.3538996695799 7.8914487037309 5.6767319784034 5.8188684802229 9.0312971110295 6.9209408107339 8.7351845253385 4.4666346266035 14.806532003839 8.1536170071199 5.5408619182942 9.2994341770782 8.6271288817133 12.158212369259 10.101468465717 14.543757701105 13.432620991962 7.559591691468 6.8756851235536 11.215639678355 8.5642828395398 11.519881551079 14.068364929689 12.457080247268 11.148652284008 9.7848906238399 7.3242400563102 11.035826541611 9.7851767021859 11.224217661463 10.518845303878 11.04375071184 5.6610536928231 10.020112434312 8.1223081544287 9.4860269159777 15.258283743107 7.7104898758689 9.1675782682485 14.59772238805 12.598771368658 9.1101986568704 10.569530210105 8.8187074997258 9.2100972529873 8.8822352028395 9.9820426006344 10.217841810345 10.897312584186 13.590480799038 10.589894436176 10.904667420886 8.7532570415278 8.0763831476072 11.719080172598 6.5947115111107 5.5921667090825 9.6100398035614 7.2267336419456 7.8050155786821 8.6077521126586 7.173074681823 9.9518464482362 9.2132725426573 6.7877285324585 8.8338391098037 13.930757941799 8.6655011670934 8.8882203037726 8.5686342584035 8.4285012293982 6.8800994109698 11.532504215725 8.4673628702854 6.6662433946141 8.0736827153421 9.538384089591 7.8427190131567 6.6914626953771 9.4917979450094 10.512300284569 7.832717569457 8.6907328137771 15.763332494269 9.2032676726417 6.2961908681583 12.940684579563 7.5239403044425 11.773795070209 11.923689799475 7.2408000304869 8.5005760906561 8.0988485443563 8.8775662882059 13.108898356069 22.203795788313 14.968372459089 8.2325904216923 6.0538028876151 8.1881258697954 7.1508573880178 10.585166443819 11.497367398061 6.935288849045 9.9717332867945 10.57667557422 11.818161736008 11.470874355227 6.628177082928 6.6143185786087 7.535806058593 13.469821262333 8.8904340520445 6.6616864671374 14.549881445186 11.785103314535 6.7782891316531 5.3777328655218 8.2066640591767 11.121364407199 10.777799274046 12.565583768505 9.3218448971066 5.6345397300528 6.6333430473523 9.6429652213234 10.767322783586 9.5606654095414 8.2913297356121 9.3188506943528 10.671979092767 11.63666258642 10.01260141971 10.940192924156 6.2261488597542 6.3666240801291 10.377128788675 10.333593329799 10.76792935495 9.3303339613073 6.6806823346167 7.6669225946517 5.4532299469431 9.7882561990287 5.4776250848161 9.790463900744 9.8672111168345 5.2740979965798 10.635765843445 9.2014120278702 8.4898301274012 10.734174112638 9.128726524846 6.5762740513217 7.78013629653 9.5625292985076 7.0333306451001 9.1537315033521 9.0467467915551 9.210619729462 11.829292112077 7.5552715226155 10.994359198463 8.2867736915534 6.7088569215834 6.4191523876326 6.1546826969395 4.8150821572944 7.5256410500689 5.3873043169741 8.9130505412595 9.5381954222916 9.1376301678806 10.203125317354 9.1955827346761 10.283854478389 10.020056022378 10.494373853057 11.14246864722 8.4272463514038 9.8804819430757 10.009830337721 5.0128992460335 10.534013259192 10.325924196689 9.5336814530257 10.322920728417 9.208080186402 6.7901224575711 8.6216461606789 8.5117862893672 6.7890032017532 6.6185617456303 10.161145649973 9.3244344596982 8.5756449180487 11.263898748974 5.3263886180782 9.0599393048967 9.1881036259618 7.2599523021056 6.1501873499726 7.3925380885453 6.4730390152508 9.480412213248 10.886124424176 5.6892300226852 9.182350170635 9.4616233372228 9.132210010316 7.0349317740175 9.1157296462093 9.6819879442355 10.675201738576 9.379286216385 6.7777796232781 13.097275004648 7.7290381437263 8.83015657531 5.6674417299388 6.2398589557959 8.8467049887427 10.217853978824 8.7256825667764 8.3585951409452 13.765273360998 12.560128898855 6.7456016901854 7.8118508981793 9.5944541339517 7.9911353288883 7.5411547711668 9.1397997944167 15.798741412006 11.094329753207 6.2899369851171 11.869481588794 8.7939458470889 11.673068943558 11.210989459107 9.3365080846121 8.273264358599 7.9681460417696 7.3728478186106 10.587214077752 8.3461189943031 10.975157138067 7.7203101216364 9.7926346223385 12.453635798984 8.6701953446529 6.1835954487014 8.9998219673068 11.988109858888 10.378116297675 5.6450937077 7.769145675703 8.7112296320273 9.5250273111329 8.1349886792527 10.236916901448 9.4241955087017 9.195311773287 6.6811655320125 7.513981128732 9.3827547432602 7.8392680873016 12.371942063129 7.4394975588278 6.7585362872883 10.261787204089 8.5301217136422 10.129509690453 6.7468877564282 6.536945613628 8.4645596453362 8.6368971011327 12.991111980903 6.9833872102804 6.0155198198639 4.5308588130437 8.4229049324802 7.0477511008124 8.4157163212243 9.1189296150301 7.7089921687548 9.3669120623795 8.8820392581292 10.613932599378 7.979922992186 12.2635863945 4.5810525611453 4.9556227684186 10.084987955088 11.234448247614 10.8805317204 9.7539643281181 9.6509892551397 10.747334060101 9.3267249493932 6.1408080381938 8.61460483517 6.0068318583423 8.2928124151039 5.1193616663364 5.8933342680156 5.6926897051161 5.9992562714592 7.3907563617087 6.6176331970551 9.1444101118002 6.4145304685112 4.8988793148362 7.3922392277206 8.4064485665374 9.7653475746352 6.7082136682858 5.8124703041018 5.181165535472 7.0106745562636 10.259451100167 9.3432555224432 6.5308556027548 6.5017940359573 5.7334842156037 7.1927288897404 8.6329530341727 7.023412442451 12.349642559381 10.4878957046 5.7671583352856 5.0098768336313 6.2846255309606 8.6835967191693 8.3636957316862 10.851552686945 12.481791803866 7.9885014393341 9.9711186635504 6.4555656999389 14.489056090494 8.1372615467542 7.3812479522794 5.3383552237421 8.9573140901929 7.3242937844699 8.6631390554535 6.5393567912872 8.8754665604049 8.3383528903139 8.7153648015895 10.839411375558 11.515301679208 9.683245704756 6.6093311250629 5.5912580932632 11.394813525689 5.5986056880087 9.6206171046567 10.795088910313 6.0183947600147 12.475481539094 7.5770518471921 6.735207911613 7.1999030494768 9.1070134307176 6.598132671653 6.1278383878495 6.8738140325027 5.212308433868 6.5203946167069 6.037506844824 12.051005439454 8.8146512197172 6.1870831875512 6.8913693094534 6.9163465785688 5.8994945524403 6.6258046906223 7.9642898708406 6.825982495213 7.0923911098221 11.12582977768 9.7706801182782 7.9298237529186 8.515368903891 9.4953462745976 5.0030399066799 7.2004002944056 4.6134278218962 6.9976197143948 4.917944482683 7.1829691041477 10.071747339173 9.0127876061428 5.0197820949574 8.7088653559669 4.3268937595167 8.2796980651817 6.4645640923587 7.0846602061134 9.3412685159056 11.303906511109 10.366183351388 6.8193656072787 5.1773549598713 4.1198987796922 6.219689120865 9.6019303615764 7.8934510221248 7.8742752037332 7.3889822859579 8.9201835520388 8.0149246071217 6.5642485403412 6.5945357239492 4.3985837694367 5.6627732110063 5.8188610985551 4.9287501643042 4.7092584017166 5.0454664330474 8.9322122324019 6.3600095126411 4.4795516941812 4.0408580213496 10.178418105179 7.4047732919423 6.3813470110776 6.1395386625502 5.3027004488369 6.0379316335509 5.0603747530339 5.155561394244 11.585771977139 8.0880819924627 6.7316626619853 7.4299256979162 9.6093141438059 7.0422550700115 7.2118124997824 4.3927533787165 8.3199402860298 8.6766041185919 11.393802486288 6.1801206950684 5.4016740755458 4.4146996056671 3.8430491878589 5.9390101235801 7.8887452303207 6.0315493370271 6.3519428166429 4.9465051155707 5.8670685313832 7.6314075687257 9.9618710990321 5.0396586408896 8.5356215328714 9.8721161194809 3.9954271329646 7.9941963828273 12.04109918918 9.2452219061164 4.9864887150774 8.0174891113848 6.7202312201299 5.8952689795003 5.5213085065456 4.7354811028323 9.4265319128347 9.6391713379957 4.6607612885256 7.4224955743495 6.4806204050354 5.3161676864541 5.339636006254 4.3665206074878 10.06281929929 8.5525040762361 8.431849510082 6.1481666607913 8.4962951712108 7.6096149234293 7.8540717553584 6.0316006413894 8.3216651783089 9.4056317001521 8.6250062741519 4.6298492783834 3.7735787318886 6.4231202080464 5.4681948967492 7.1079669364962 8.4347845230964 4.8508608198545 8.4256734033989 3.6817108833131 5.4624964753605 3.6212503810028 4.0734190446939 8.0303546618913 4.8153491391543 7.234710888856 5.3366481135092 7.687761710321 7.1713804404517 5.686024270055 7.2449532179905 5.0624793957099 5.7219008470478 5.4830104760502 5.332817320045 7.39058431769 5.3357338283178 6.4689587501587 9.4998316258318 5.0596332674111 4.4862186641625 6.2991947204977 6.0803659137912 11.240146737864 4.9372268700351 8.4790183800811 6.3141388789526 8.6355782275121 9.3913791360105 5.2193047970163 3.7526915494339 7.3031391960142 6.4480363099571 5.963430468871 6.1778892848442 10.16643585118 7.0504961910601 4.9045472917909 6.5815887619721 10.152242049197 7.3074651672873 8.0681560486012 6.9809324430119 7.3377681365409 6.1881539440255 3.8276238804591 6.7752400152871 4.0802859657514 7.0950571824436 6.4946365353684 6.9277476162824 5.62674069669 6.3074664900739 6.5695574481682 6.5978155502318 6.5250485894797 5.409389852026 4.3165276529347 3.6803862373874 4.5617857943993 6.198178740919 8.3794516496403 6.6711123311292 5.8466213007887 6.0821748683799 4.9334657959799 10.252891592673 4.7023100209072 10.231143252836 7.0554616386399 3.7629326012375 8.4620091658129 8.301099456728 5.6826830498446 7.6683200657229 6.2794274851402 5.2577401292447 5.4076357181225 4.7718557459212 6.7261514971982 6.7103523465149 3.8611352081908 4.6076654970323 3.9592306856064 5.0868838731634 4.4527163686655 8.2067213816778 4.857775620407 7.5699144019242 4.361777333079 4.5777981771783 4.6581722976394 6.6948314550572 4.0019526961384 4.1035746161359 6.0740904668656 4.4814970508832 3.7325220040687 5.1668488310177 8.3749915992791 7.9596781597936 6.3038589498923 4.1806142690619 4.5630649707641 4.3283530103649 7.8356898812444 6.6002776098924 7.475724288243 6.2646068726066 9.2238924786985 8.560645599481 4.9489776731287 8.6906603180974 5.151978447835 8.4317543112736 5.5346940350978 7.797559237025 8.9340203340716 6.6142812014625 7.9256417231198 7.4394505492864 7.8790784533666 8.490620019956 8.7519193593615 7.0471315452574 8.0525563138353 3.8606141376404 4.968973243813 7.775834426451 4.3298826375868 8.8401018536111 6.2681781086906 5.5412405543583 5.6108056333619 5.5891413248114 4.8228894573574 4.5731426684465 4.5446672994808 4.2428697122714 4.5238987607371 9.7087221014027 6.7784038174106 9.3745371990131 9.7758698526135 4.4351120466968 3.700732029805 4.7794203121795 4.9808797990592 5.4327027976118 4.9220621951328 5.2393008516264 4.7967286489998 5.5412628993871 5.6941394004297 5.7234891451691 5.520475708747 5.7378142571527 6.225150715718 5.2412240564424 4.9845692428772 7.6966324862181 7.5186313846263 4.2095029812126 3.4440816560242 3.5633480516199 4.0363493703165 3.7776127888958 5.7994265424876 5.1446339994707 6.0830328463815 5.777279427231 16.959771209671 13.409354545562 3.8221082290339 4.2010085681919 6.8033447181872 4.8514616808821 3.5139238018502 3.7059444600013 4.6710486687385 6.4408072573561 9.9197993934497 5.825060537983 6.8879804820695 4.5811822305819 4.7797045231218 9.0755476013143 4.5349298363343 6.4294971489219 7.991582885173 4.3762736558391 3.8885351844521 6.8318847887997 7.3089025135295 4.6733906279049 4.1695289244232 4.1803793625479 5.6348151647118 3.9092337993169 4.5496947193012 3.5590280120646 3.5255201678801 3.8727619377647 8.1573919651558 4.2314057203639 4.8651750544347 4.2845979713849 4.8865164375123 4.0364974379125 4.8362377080797 8.3432556519377 3.5464910831273 5.7159933848117 3.4895143696326 3.7976883302734 4.5390752189829 3.8937289664054 3.71908256756 3.645373639685 4.122431849159 3.8924554272315 4.1887794585988 3.7741957438277 6.8060440060451 4.508136215095 3.6272175851048 3.9791641329528 4.3800303450646 4.4307332777103 6.1997276014312 6.303698656722 6.8932866612757 6.5141453639229 5.7321761952563 6.1643072360037 5.2925583174636 5.7320441486499 6.5130848581521 6.1778922066243 5.1426083205217 5.4544607600774 5.40895915879 6.6269889278722 6.0303115606133 3.469472855995 4.2218500988209 5.2706020373363 4.2840906070126 4.0675782091775 3.7912303576944 3.8952348022241 3.4627634499739 4.0634235615704 3.7509736970677 3.967714571165 4.4290675489536 10.644776494455 4.0737442695807 4.6078306945245 4.5455904162294 10.640892724528 6.702324766501 3.6986851359667 3.7536542989012 3.4524698967222 4.1815715296408 4.3724501070319 17.725992749564 3.6420774760869 3.8835817275191 4.0247989315197 3.4913176699806 4.4548566242385 5.0549013941807 4.6853477076396 4.513351418652 3.6345963450395 4.5417700548161 3.9082743417282 3.5043862916979 4.1714772168154 3.5131902101677 3.6128791769253 4.1466373309476 4.2238814444445 3.4347963383855 3.6200425791198 3.321141310922 3.456012247567 3.337563135815 3.4221413066333 3.580622146701 4.1374979238727 4.137920634668 4.8214306599283 5.0157851056692 3.687099547336 3.5680498575183 3.5008231134483 3.993324299708 3.6355283132126 3.5463860960087 3.5462495685039 3.5455556847676 3.5405217627699 3.5790935556776 3.4154588455637 4.060568567706 3.3347127591274 3.5442704825642 3.977424984447 3.9225586203833 3.4941519152478 3.4708595982324 3.5472694992322 3.651075968831 3.3452327024252 3.3184215985289 3.467664598436 3.4615891427443 3.3689983219857 3.5096515699332 3.7644532578752 3.5969890561558 3.7040363418325 3.4948729120416 4.0194500795069 3.4502471825578 3.6392895990354 3.3306399090437 3.4154430173246 3.5155012332971 3.4152034275947 3.5696947336103 3.4702570342188 3.5704678279249 4.1164681868427 3.5185031195496 3.8411009259455 3.4149100266356 3.4687586406106 3.649239886058 4.137267172375 3.6344576121617 3.58487107191 3.398701716244 4.1765548713809 3.7390939167113 4.3378944706489 3.8345281450081 3.5224544823275 3.7121591127673 3.6705468365708 3.4165692669932 3.7119666159461 3.8589216452626 3.6761072814089 3.7981833864611 3.7286591662948 3.6111445271574 4.0193520515066 3.4508427230976 3.833357076618 4.2893083026031 4.1384105775938 3.9576057994053 3.6750657615687 4.0579692829158 3.4330566259435 3.7991976609384 3.5685351112344 3.9784648671275 3.8136170107502 4.0069121787154 4.1834048889477 3.7903158880729 4.1738902464086 3.8205647059362 3.8882884856644 3.8764867271506 3.968855321209 4.0377796452241 4.0322953822868 4.2595343922714 3.7075601010136 3.7568651846671 3.5833497402861 3.6598735236138 3.8096005785405 4.1918582829166 4.1456995606575 4.0422684193206 3.7094345055121 3.9702978130087 4.1621764414294 4.0851365959967 4.3884028303707 4.1429911483448 3.7685320543373 3.837177465626 3.6819820567584 3.8751277405221 4.0244300120022 3.5449175290809 3.9295401432737 4.0048260686718 3.6837823839305 3.8267890971521 3.6958678844725 3.9699172570353 4.0045144119356 4.0709918278552 3.9528117499269 4.2803682153137 4.2260933406452 4.133087088047 4.1151103565814 4.0646654278558 4.1951776716966 4.2236818660338 4.1992278250598 4.1671698369566 4.0695817038816 3.7632961831339 4.3517386467335 4.1991880575857 4.0002215913494 4.0955058530482 4.2162357575634 4.1941213169977 3.9483596727762 4.0734018876027 4.2853180378137 4.339864651803 4.4031460922006 4.4210118036121 4.2851173807194 4.4602458889397 4.439922299307 
SCALARS 20.00_0.15 double 1
LOOKUP_TABLE default