# vtk DataFile Version 3.0
d-2__ created by libgimli-v1.1.0
ASCII
DATASET UNSTRUCTURED_GRID
POINTS 570 double
14.5	0	0
14.25	0	0
14.386963504964	-0.201738469428	0
22.399299936458	-0.310870122736	0
22.129824335287	-0.229914148082	0
22.126320781198	-0.518791771445	0
8.472303742627	-0.591754876635	0
8.780507935475	-0.76092407121	0
8.82173151259	-0.349253271447	0
18.663262297679	-0.667179415955	0
18.934786529245	-0.453308328646	0
18.636898038907	-0.29588182328	0
4.016904362632	-0.85330676142	0
4.076038737616	-0.331410355179	0
3.713721571226	-0.470767763626	0
1.89953779852	-0.269343012166	0
1.633800503821	-0.203067612233	0
1.644492760828	-0.441295523531	0
4.368408037607	-0.250833874131	0
4.337474161742	-0.544420985055	0
4.67745607622	-0.378433532554	0
1.406172533733	-0.772361039307	0
1.913288206557	-1.218576310882	0
1.90687689783	-0.651895683444	0
2.5	0	0
2.25	0	0
2.347047126858	-0.185539804102	0
1.374000926997	-0.300418771701	0
1.25	0	0
1.114902662369	-0.201591505098	0
1.067401015567	-0.470108640981	0
5.75	0	0
5.699780065382	-0.324747799653	0
5.924584257371	-0.172748359932	0
0.883560935405	-0.231136840652	0
1	0	0
9	0	0
9.117836368049	-0.253904480787	0
2.625577516194	-0.346770599322	0
17.859079774019	-0.943547525024	0
17.535029634209	-1.703182852412	0
18.338018094476	-1.366069799339	0
19.932263871771	-0.826489183604	0
19.881635677668	-0.346204516721	0
19.622287080959	-0.573770479943	0
1.5	0	0
1.75	0	0
23.25	0	0
23	0	0
23.109690227386	-0.220340974338	0
2.75	0	0
2.142562771237	-0.172460438312	0
2	0	0
23.332392704446	-0.202507275941	0
23.5	0	0
19	0	0
18.75	0	0
18.888143078348	-0.195773419804	0
2.90152418742	-0.185685383897	0
7.612175045312	-0.180627982114	0
7.527150943175	-0.401430797998	0
7.881917737402	-0.30462800112	0
25.630635194756	-0.512020961038	0
25.243766894324	-0.80097755811	0
25.758031115142	-0.952821630144	0
3	0	0
28.84859809239	-0.201276387394	0
29	0	0
28.75	0	0
4	0	0
3.835807353334	-0.199536243303	0
3.106904732949	-0.178783649348	0
29.25	0	0
29.092446172194	-0.305987136665	0
13.5	0	0
13.667851890428	-0.185102765244	0
13.75	0	0
3.75	0	0
14.407363653886	-0.441423674912	0
14.125469935998	-0.279652141152	0
4.25	0	0
5.061980176718	-0.407989246181	0
5.335512032876	-0.269401530321	0
5.113979852892	-0.173834924157	0
11.882046000841	-0.812345557852	0
12.478640631525	-1.146569360669	0
12.244190771573	-0.565936619511	0
3.633270844505	-0.195395238442	0
14	0	0
18.378272976509	-0.514977451159	0
5.5	0	0
9.619519097921	-1.16461851757	0
10.030576753886	-1.587265312651	0
9.961661342999	-1.070235523667	0
5.25	0	0
5	0	0
13.157975569138	-0.830425793913	0
13.83833027638	-1.238601004239	0
13.671302359608	-0.710707966059	0
11.325917093147	-0.8366783502	0
11.612143285947	-0.506264798476	0
6	0	0
7	0	0
6.83842404292	-0.188923754932	0
7.11236984822	-0.391746146843	0
6.631875629497	-0.169178192832	0
6.75	0	0
3.21002197083	-0.595267231049	0
3.445510026908	-0.608065324465	0
3.362318141622	-0.306501255187	0
6.120159502895	-0.164221934939	0
4.538525595924	-0.906226152762	0
13.233775457127	-1.737244787017	0
4.5	0	0
16.138065841822	-0.472802517973	0
16.126746690205	-0.221608117926	0
15.859319180798	-0.326402762318	0
26.080401003391	-0.227842452866	0
26.25	0	0
26	0	0
3.019224421113	-0.401469974918	0
8.234901607028	-0.35771789179	0
8.518285578354	-0.242327591839	0
8.328777073389	-0.153008859619	0
7.25	0	0
7.400656881666	-0.195280611572	0
7.5	0	0
5.385509485898	-0.709154879541	0
5.948697127931	-0.745234910621	0
8.75	0	0
8.5	0	0
8.25	0	0
2.214249105773	-0.404278959534	0
2.896561357202	-0.792481120253	0
9.25	0	0
4.920911116561	-0.192028847294	0
9.651670336652	-0.200847798694	0
9.849824537955	-0.19917205686	0
9.75	0	0
10.095049354068	-0.315754204277	0
10	0	0
3.25	0	0
6.738406513564	-0.710129601907	0
7.121614580011	-0.943026074581	0
11.345829942703	-0.314788260019	0
11.25	0	0
11.104427225455	-0.188863495516	0
6.052412255932	-0.372556729023	0
6.373371846535	-0.274163514827	0
10.25	0	0
10.380281579003	-0.241092027437	0
10.5	0	0
10.75	0	0
10.909079077441	-0.189427130481	0
11	0	0
6.25	0	0
6.5	0	0
4.75	0	0
3.5	0	0
10.672815698565	-0.318467932684	0
10.772487906066	-0.787092734739	0
11.020900486567	-0.439266778492	0
8	0	0
7.75	0	0
11.5	0	0
11.619450354737	-0.231443672836	0
11.75	0	0
8.139317726831	-0.163309591658	0
12.25	0	0
12.158949464947	-0.235415698299	0
12.412455385193	-0.275030800337	0
12.929165084344	-0.221336108042	0
12.686337592177	-0.258437422252	0
12.900449535554	-0.462768612232	0
12.5	0	0
9.405755833308	-0.325979504745	0
9.111697192308	-0.594170467817	0
9.457257345083	-0.753685223931	0
18.101369157139	-0.618560521812	0
18.336839281097	-0.861122419318	0
10.385948631267	-0.570640149046	0
9.5	0	0
13.411260455969	-0.342646276848	0
12.643108055516	-0.590179775368	0
13.137744715761	-0.195204172124	0
13	0	0
21.25	0	0
21.358341816502	-0.326561417551	0
21.5	0	0
13.816492716597	-0.40394453634	0
20.25	0	0
20.423452336785	-0.313445603959	0
20.5	0	0
17.789350393153	-0.390447709085	0
17.987794057246	-0.401472255242	0
17.881276545163	-0.206424156589	0
19.564465692234	-0.270867872644	0
19.290725118801	-0.49926248604	0
16.392319441256	-0.29915360323	0
19.443730892406	-0.923508713428	0
20.457987075478	-0.803203365193	0
20.167450719332	-0.505159975143	0
0.103762538371	-0.253013629949	0
0.267057015134	-0.483604909932	0
0.374713194419	-0.2320817565	0
13.25	0	0
17.415572543912	-0.230682214253	0
17.5	0	0
17.25	0	0
18.108153655084	-0.208141099276	0
18.25	0	0
18	0	0
15.75	0	0
15.544586046819	-0.246453491997	0
15.122708481244	-0.193620038745	0
15.25	0	0
15	0	0
19.75	0	0
24.149237782749	-0.319013340846	0
23.842766599446	-0.577371105011	0
24.183995039967	-0.73159476451	0
13.871646321742	-0.17394291424	0
23.862588150518	-0.245417872715	0
16.84024277193	-0.203626765466	0
16.704049384397	-0.435508179396	0
17.112673188265	-0.38804641709	0
24.75	0	0
24.832880292394	-0.290571430318	0
25	0	0
16.40158555625	-0.755912194683	0
16.850299990829	-0.757941865332	0
17.75	0	0
23.567455674596	-0.325197491724	0
16.25	0	0
16	0	0
22.645812614293	-0.197864648876	0
22.75	0	0
22.5	0	0
16.75	0	0
17	0	0
24	0	0
26.914424714815	-0.337869958787	0
26.621963281699	-0.624626679172	0
26.977877660759	-0.778408201088	0
26.622424322919	-0.264588309935	0
19.34462271879	-0.199329831305	0
19.25	0	0
19.118057075065	-0.225686869553	0
19.5	0	0
26.75	0	0
27	0	0
27.5	0	0
27.604422363523	-0.298869962794	0
27.75	0	0
17.650384190064	-0.227839036584	0
18.343198956448	-0.236734208617	0
18.5	0	0
24.25	0	0
20.143897114391	-0.233773711865	0
25.5	0	0
25.25	0	0
25.344389320279	-0.31693710653	0
21.059546193318	-0.24845941382	0
20	0	0
25.842927934822	-0.248287716678	0
25.75	0	0
25.613904645132	-0.216025146631	0
21	0	0
11.763551406169	-1.481607093928	0
30.981104050195	-0.5526690913	0
30.873880294509	-0.217692518774	0
30.706626759758	-0.34945139905	0
20.75	0	0
20.85240828135	-0.178025243856	0
23.75	0	0
20.66289882074	-0.189089155251	0
30.204950808504	-0.791758966623	0
30.715535843381	-1.149995259266	0
30.543724897762	-0.572259098027	0
30	0	0
30.180216671806	-0.343473673313	0
30.25	0	0
23.229584388362	-0.458653998547	0
29.5	0	0
29.623391954444	-0.322069028408	0
29.75	0	0
21.618913855927	-0.233585823579	0
21.75	0	0
29.348490380579	-0.521100538161	0
29.36294710412	-0.230601226356	0
22	0	0
22.25	0	0
28.25	0	0
28	0	0
28.129259193923	-0.314252106503	0
28.44374413871	-0.484576386004	0
28.100199615755	-0.812038297775	0
28.649230646972	-0.871769248311	0
28.618403654115	-0.227691192115	0
28.5	0	0
28.387848605749	-0.205892081491	0
29.054768525933	-0.708603081552	0
29.344906532636	-0.846887322836	0
26.327430876245	-0.35930637997	0
10.349120516034	-1.04150119828	0
10.894920134778	-1.514321070539	0
24.59640839418	-0.191760546865	0
12.75	0	0
24.5	0	0
13.102881121377	-0.411296235356	0
25.099388239946	-0.214879887129	0
25.97986022697	-0.52841375324	0
24.398993403151	-0.196312410538	0
17.860840746535	-0.577367743328	0
17.566481510048	-0.529340016102	0
26.5	0	0
16.637148248735	-0.188015807345	0
18.183918302467	-0.396443618316	0
27.159348252167	-0.205297590358	0
27.357530053515	-0.198815038154	0
27.25	0	0
15.060354649709	-1.112587998155	0
15.51532665618	-1.043792149387	0
15.178150912169	-0.713100616689	0
10.051363365948	-0.719159376333	0
14.661248691948	-0.27865166374	0
14.75	0	0
27.868836823455	-0.217301839861	0
31	0	0
30.75	0	0
-0.020273477909	-1.415389842481	0
1.054972770973	-1.487485199502	0
0.512583677021	-1.0438154777	0
0.75	0	0
2.361419414365	-0.794513604096	0
29.890297721653	-0.2433406165	0
30.473599299501	-0.238575611274	0
30.5	0	0
30.660802173874	-0.161931182737	0
28.783812899585	-0.467926883932	0
4.937022539393	-0.72440615077	0
6.696914540879	-0.380672503721	0
7.434272221796	-0.695675918868	0
15.339606453815	-0.166204802571	0
15.281953315711	-0.388999642276	0
11.893544445085	-0.335972898148	0
12	0	0
9.753796445798	-0.478866225926	0
7.720012958977	-0.638314519759	0
21.871398197179	-0.313006985103	0
21.615176662754	-0.521922347305	0
21.856785525528	-0.665128848631	0
20.792152536902	-0.448319093295	0
21.109577821412	-0.527879642114	0
21.360297691811	-0.734200004244	0
15.547854961707	-0.580173571081	0
24.496861814148	-0.467031445896	0
25.067351422649	-0.463427753535	0
24.81263825963	-0.684738154192	0
22.865620821195	-0.218348593093	0
23.443705587002	-0.773171720633	0
27.277617447467	-0.489224417775	0
27.863714790534	-0.471681393437	0
26.239117668995	-0.863279739365	0
29.896797054636	-0.547765129844	0
29.612773839625	-0.699757135752	0
29.867172666547	-0.87444432816	0
29.610354212963	-1.521444655905	0
29.59548165142	-1.071765512911	0
29.115129171034	-1.220660174798	0
31.345359428525	-0.458952144926	0
31.144859415042	-0.241304201582	0
15.919565295974	-0.746550096707	0
16.063006820294	-1.289595303187	0
16.5	0	0
14.900855313538	-0.178071167744	0
14.161016743654	-0.72559708689	0
19.011498044983	-0.834202892304	0
16.760433281999	-1.263698818643	0
17.280361389946	-0.931704507314	0
-0.627742252535	-0.296285438777	0
-1	0	0
-1	-0.5	0
0.625738545692	-0.228405936136	0
0.5	0	0
3.313957665883	-0.865581185485	0
3.619156095452	-0.800599314657	0
[...]
CELL_DATA 986
SCALARS 100.00_0.29 double 1
LOOKUP_TABLE default
6.2203942496489 6.5589406792571 6.7913021121818 5.6517866270964 5.2369973444846 6.6161600564294 6.1009378808063 5.1323108603556 6.8894847231088 7.0305548158328 6.5041089867278 6.1732997271365 6.9583357137587 7.3890678753968 7.0467019241515 6.950763298255 4.1458784935674 6.2024899279164 6.5238893741499 6.3958471208117 6.9945610195797 6.8977820843087 5.2819191143301 6.8880310477043 6.8998847542356 6.5742236164951 6.9423159654234 5.2963649225658 6.4244361677565 6.5293843115839 6.2884818946564 6.2841261851017 6.8933358790845 6.3794109132645 6.1971203343781 6.7513133272665 7.0057399136051 5.9876817816988 5.0740387604765 6.1946088056473 7.1138250304627 5.5550561262519 6.2993244262268 4.3686579715345 5.5033848268394 5.620671653962 5.4032984553943 5.7897318707983 5.8890541827211 7.5341544181767 7.1746895548876 7.6255277610035 5.1725801754643 6.9225356679019 5.438795530029 6.5944836977655 4.3607272366237 7.6056262324854 6.946462409383 8.0675592632881 6.7826702888825 6.1788760244221 7.590442224412 7.1342387899577 8.497203736765 7.5427459400911 5.5990604243664 5.4421049082025 7.6526720040051 5.8601111663937 8.0689160524576 6.6980611009477 6.9952079259693 7.286648772128 6.9391218489172 5.6818841383578 7.6105400064147 6.1254496523437 8.5342204837481 7.6917745605804 6.1056318566158 5.0608164051056 6.3094157714454 6.714744581561 7.5446261479338 7.424257978398 7.4113411264715 7.1285256609381 6.8330827923653 8.8783266670985 5.8013432507717 6.9215378564625 5.7576373906511 8.0991761989785 6.5800424254211 7.0389506892793 7.8407407944221 7.1767119108182 6.7691941688264 6.0929711900598 6.9719123884945 6.9609402314975 6.8235741771518 7.1261771694345 5.8419310235695 5.272009183934 6.8209135830154 6.1683925991845 6.3085486317769 6.706536822594 6.2909267083765 7.1619710247664 6.8278474180296 10.382714455188 6.6921618525195 9.0433471767624 7.0169236696298 6.6443798506418 6.551680192943 6.9119698634076 5.6930070516593 7.0378518856813 6.6675753063233 5.8883861999574 6.4623345672091 6.238841661575 5.8130021930329 5.7016227447096 7.2970419413001 5.9995909523205 7.1278285028017 7.7962578546923 7.8785803653883 6.8146474899386 5.6546931845382 6.288668967953 6.8544231624305 7.1694349583207 9.5761051470171 6.3321430162876 7.5126882929986 7.34644908709 6.5621792183223 5.8229634880291 7.6691339423225 7.2528033748408 7.9138820901386 5.5097783281647 6.3312084367474 5.8776281900568 8.4873525878889 9.32918646632 5.8646029840872 8.2838087866446 7.9731937145683 8.2043221688795 6.4216550192179 6.6231222475252 7.1861756686334 5.9354692996537 8.5797843622903 7.3547310972947 9.2522859143963 8.6828576828077 6.2677715575048 9.924881829345 4.8633346634866 7.139979386677 7.5310180336557 11.533549070727 8.2714709776406 6.5981435469084 5.4565973527047 8.3458551696272 6.3172520772478 6.4909372446855 6.5349899735098 7.5046853803823 6.6885155412174 6.9500522864145 5.6183772572204 7.7574958881464 7.2078819954392 5.3868536969517 5.4447611764989 6.0875804582975 7.1852616653546 6.0399148731027 6.6654473798592 5.7501260001524 5.9877581745954 4.9462937077069 9.6655829535893 5.0631550698424 8.6711753661842 9.7774055934661 5.0329803341856 7.9878270053761 8.7442280362344 6.5673968749092 7.7494773627475 6.4237774647529 7.093328542375 7.7900681464789 6.9567775496781 6.0448538878214 6.6377409220624 6.5385740314921 6.6675067857085 6.181457381038 5.6727838575744 7.1316855421735 5.975085109907 6.3590910298325 7.5111138752449 7.2487170070959 4.5646905101502 7.3120226630906 4.9591139422036 6.4029016237231 7.6175253672523 6.7394324572297 7.0763237275984 8.8158324725865 7.3337538910978 6.9036010918361 6.7528826263704 7.3332665856078 6.3669540189723 6.7753854703722 9.9230200505723 4.4571302487045 7.1724440146357 6.9499489951865 7.5061970662748 6.2430387489837 6.5803107806354 5.5160707485718 6.7863798318952 6.4907887621174 7.698414466259 7.0226753445652 7.1215435338207 5.6509446050497 10.508843685969 6.7010213738664 6.3653511793879 9.8737488473989 6.1574450367579 7.5642134816138 5.7994448668519 7.6420135379925 5.2969876082615 6.4841022908935 7.8191931062663 5.9301785602264 6.8911524156335 6.8143489854104 7.0889197378571 5.5752985334248 6.1424454183271 5.9126546640128 6.3131816491218 6.1450942883437 6.4071499214319 7.5251193680617 6.2911298170378 6.0834545978814 7.6488368828815 6.8333319443478 6.1047171680727 7.5573022453219 6.6482703398776 7.5426450200737 6.6302063493043 7.288855984196 6.5239379706768 6.7787140257319 6.8982987671792 6.8363499466422 6.1391509742504 7.218545474976 6.9070175504698 6.9761555036304 5.513553065408 6.9715830363002 6.7237214696542 7.212720735831 8.814855968983 7.4864164497085 6.8432503266761 6.4833157435963 6.1037925661051 5.8879406980412 6.6198435227485 8.9492927576589 6.6152136474853 7.2937137837586 7.8540285470974 7.5315858443871 6.0267077469915 8.2183021064548 7.9315664463958 7.4013961485144 5.4642173630083 6.2423999144614 7.5841820750736 7.5921131640753 7.3134344586315 6.591834408921 6.9193820006675 6.9550356395186 7.2977202019892 7.2567338262414 6.5771260127447 6.1793611336835 5.5372929230717 6.0169443024109 6.7487956826493 6.3953356395164 6.533406511026 7.1219063622672 8.0341990559111 7.0554643903948 6.2986433663542 6.4839421998858 6.2763238985674 5.6694504420774 5.7837013951737 4.4792174978856 5.6762414941702 6.3129004196195 8.416183579245 6.7000307074771 6.7457536808091 6.5320191665248 6.5063749520664 8.2584387593462 6.1864382345764 6.4268679882239 4.577054444491 4.9205664634007 7.6928230120692 7.3971129404644 6.9967311154217 6.8014748319336 8.2950547314424 9.6825162452816 6.9786256105697 6.0795781872129 6.7387763631126 5.1513089884657 6.3670412344765 4.9706787826324 6.0156509623516 5.4080387630603 5.1593777498775 5.9900467748415 5.2735118481286 7.8334576812533 6.0590863149657 4.6545701976343 5.9487559303888 5.98623614261 6.1193670626797 5.3866855859097 4.9464038297246 4.5197186300263 6.3472762212214 7.1629179873807 6.5956600390374 7.0653609233456 5.5298311308519 4.945856139408 5.9009651269693 6.2242675430011 5.5561452063476 7.1933015668305 7.628200101568 5.3586682554133 4.7139615945742 6.0587739700995 6.5631839176945 6.5138130808474 7.9375402783257 7.2659793201904 6.2855355007491 6.7105053590279 5.573590776638 7.1670381678064 6.3770914343213 6.0935774946709 5.106021648915 7.0481637421106 6.1474428591362 7.28821679298 5.9303637324419 7.2510926330872 7.3266681862841 6.4174396997947 6.3836275383027 7.3467842406133 6.8906074553589 7.1870294170356 5.0181155751256 7.6826534455089 5.2565574444824 7.1691745632889 7.594633672297 6.2521861994667 7.2521380860175 6.5708724849767 6.5844158993656 6.1403564036971 6.7010585746835 7.1032703531396 5.675262361964 6.0147827529779 5.0818194409823 5.8654536189355 5.1859741734308 5.8149731400101 6.5108370367489 5.8339906630028 5.8670255308906 7.1964988555211 5.7917612727021 5.5039920749862 6.2240133239951 5.55074904559 5.8345275687617 6.9303716433631 6.564294515809 8.9133284163361 4.6022530366655 6.8529893480963 4.9729649643067 7.2340221608731 4.4276876645274 7.0091987724845 4.568034635545 6.5357599212379 7.7715578723691 6.9128584000627 4.6687921492332 6.2959654800266 4.1936158045812 7.3767692574488 5.7105932493978 6.1148246235451 7.0676894045022 6.8508710362136 6.8794560708052 5.5229683044696 4.8157180942074 3.9971065799489 5.8498450818789 6.9470780445956 6.1456675281418 6.5581117469038 5.8513330276318 7.4538767135825 6.1307839152124 5.5889276333489 5.5564829079202 4.2864750568719 4.8985164044766 5.7488437155726 4.7306550264007 4.3711980316241 4.8487378930138 6.0930977538739 5.288416585772 4.3265494788289 3.9558805939892 7.0466258163305 6.354677112692 6.4482641800853 5.5189491111639 4.5013181355222 5.3389063420652 4.4895874802556 4.9015996752353 7.444314275191 6.9049664126562 5.7645249029343 6.0954938674464 6.8304478803995 5.9176192587192 6.4276813852446 4.1146062574914 6.5264517627363 7.547157549533 7.0049910174787 5.7840956251858 5.0143960336541 4.1905717610446 3.6633358981951 5.2019296708819 6.7997883214606 5.450506831399 5.6755311892374 4.7355267891106 5.3217688435365 6.3670279088 7.3340014819994 4.8343899165583 6.3841405001721 7.4307633186011 3.8713273155875 6.4890608736046 9.5473284414186 6.2439740309704 4.4802151069928 6.019758424733 6.6476976102078 5.1728512253339 4.9524528099234 4.2438762682223 6.5552285397346 6.5705349549416 4.5265453918836 6.0158821849139 6.7322348496962 5.111809068343 4.8177756176736 4.2386708429892 6.4012128730532 6.1940419726532 5.687771578935 6.3197623127387 4.7292358923974 6.2979535634665 8.1829246300363 6.2377553356887 4.686560910824 6.8807767537799 6.4313580020562 4.4098384925709 3.4914402835429 6.4026612426578 4.8657910644528 6.9842915603013 6.7136970146225 4.4950789484545 6.503660532459 3.5790791423792 4.830337690846 3.4197969820252 3.9674841875009 6.6014480712381 4.7189888836728 5.809980689909 4.7175989281656 6.6618574031312 6.27092741918 5.0361670010126 6.3223348735184 4.5628583448716 4.7568124838895 5.2414710869026 4.8615277818553 5.7016787449086 4.7321464080057 5.8695049855998 7.3696654442233 4.4640564246606 4.3301100576541 5.7106030011035 5.1348164864643 6.9326884070726 4.9847368961441 6.7942549031714 5.5399970215989 6.5776475964714 6.3933260327102 4.6045202664451 3.6264715527257 6.1297115074557 5.6976728505724 5.4124278268813 5.445419779259 7.6222331944806 6.7087999620717 4.5091979116852 6.1579667395723 6.3727015333481 6.2435285467392 6.1363063204829 5.6010921211158 5.901280732549 5.3461713498746 3.7240101348473 5.3863773055904 3.8193657295184 6.3763487807523 5.3965955981529 5.6762419021567 4.697945046664 5.3518225036936 5.5465721488025 5.8012089013478 5.6840117505745 4.8097572328423 4.1422555285985 3.6312116665268 4.2424857127418 5.4205024122253 6.7310877998259 6.1159842072028 5.5925656029167 5.0086988088882 4.2685165257768 7.2913357090117 4.497220184289 7.526280598651 6.2871566928924 3.4753655536929 6.0239571980155 6.6914156763108 5.7581353698421 6.4302779205365 5.9457573181853 4.6405664198676 4.6845783985714 4.5721974693631 5.6837660054664 5.5485724901276 3.7005440997411 4.2762437210941 3.8432011816201 4.3397237321441 3.9344031447791 6.4294476488508 4.6321326468991 6.604249877275 4.1450960652998 4.2843803356325 4.4160775948582 5.8649786351553 4.0268574083458 3.9241252239873 5.0988933199565 4.3031396529041 3.4940028879609 5.0012764697887 7.161979867155 6.399613069734 5.599659092179 3.8057475312115 4.3780087784755 4.037994421772 5.4180720349697 5.7957415066355 5.3062139032128 5.5556185399894 5.9492720507166 5.2601981389567 4.8874853985455 5.5488130804356 5.1579811713805 5.4119097738487 4.4707159928443 5.3086048593217 5.4958801772321 4.9052619622888 5.4233961572549 5.2138067477007 5.4543392545833 5.6163072947483 5.785964014139 5.0899019665294 5.5260213398738 3.8592639781812 4.6287355939356 6.6858638810639 4.0354145868965 6.782570514218 5.6815131796598 5.0852238376288 5.1730776490635 5.345044426104 4.3388369563582 4.1369716906533 4.2552481045159 4.0679480767384 4.5130587585917 6.6161809744029 7.5013894308985 6.8586159549831 7.4523686246928 4.086934072298 3.461726254984 4.5147749916579 4.725888592196 4.8848048675714 4.7031733653993 4.8614701813031 4.4152699713626 5.0774864504134 5.7293407875551 5.3633429149313 5.3534112345456 5.2495904301684 4.9632444950395 4.9967596648348 4.2449305860042 5.3720629622483 5.2911932823838 4.0294701901277 3.3154672199996 3.2112458885117 3.8398843772703 3.6798676231167 5.4381360754509 4.8215774880489 5.732872503348 5.1393446360356 6.7789871462271 7.1703230143567 3.6120997241984 3.9875795886408 6.0949335669239 4.5406645883659 3.4307387850476 3.6206823890014 4.3863880756975 5.7746921107376 6.9197640874166 5.3688197440158 6.1646117402536 4.3254247509857 4.4970031673845 6.9775748973528 4.3895633840667 5.1706404595776 7.8124373801744 4.1801536019132 3.8503291783196 5.9271847051416 6.2675456269115 4.3265796953162 4.0196539792823 3.7469355214767 5.14917644008 3.803380419897 4.1272096438538 3.3650984778859 3.42376915394 3.6735560263473 6.8635544114648 4.0765110196084 4.9295976175568 3.9083809276662 4.4025661790909 3.9119217695325 4.6392026705271 6.4330985128646 3.376687464975 5.3228417949158 3.2206508089697 3.6364360094142 4.6247685571453 3.79581333573 3.5089358554779 3.624376317717 4.0013269099201 3.7416051381366 4.0537939540347 3.5882691742171 5.7522725559013 4.3402433377682 3.4952872792267 3.6232031609287 4.1268156718073 3.9119317824819 5.4689801043313 5.4194942292889 5.5082423923469 5.6838686175685 5.0143938357157 5.3411149416436 4.7193057453818 4.8430542219068 5.3512780895665 5.1717597481995 4.3986374170231 4.7442908521559 4.8231984170251 5.3395379764698 4.920561871946 3.217955298333 4.1986576836338 4.4232978402251 4.0095808574189 3.8916561904156 3.4655179517413 3.5943346729735 3.4062269481015 4.0614425116324 3.4213887591108 3.9354401317671 4.3133454444984 7.0145851641866 3.7599443035885 4.4915083327826 4.4008706952847 7.4166676591827 5.5246903992116 3.5083362904177 3.4773263197616 3.2968694297884 3.8565942020204 4.4442382879869 7.1516701752123 3.3985524056315 3.7381817872421 3.9270236738629 3.2036703511579 4.0561948187307 4.5477459130819 4.1494491093279 4.0804457960425 3.5468468516177 4.0702849773201 3.9129800801286 3.4690254392096 4.0063955948532 3.1986957623723 3.4766286339407 4.0002477124833 3.9648308636155 3.2154912474948 3.3583009759768 3.1862264880519 3.3178898648926 3.2292726273451 3.3444211365812 3.296880746942 3.9292165113536 3.8070950831142 4.5867915463476 4.7139119260234 3.4842933695088 3.352119433084 3.2284197133809 3.9935061908619 3.3726110823152 3.354271690461 3.2689296114981 3.2935620307906 3.2340528574405 3.5473818921497 3.3481576734112 3.9234978135052 3.2308941960555 3.3253150917172 3.7007712701899 3.6670157072629 3.1516153407092 3.1515120963656 3.2329943148761 3.3405140431146 3.206730712131 3.2096760707192 3.1699413385846 3.2846711495825 3.2902816726457 3.2492256250991 3.6083670554961 3.3091788950226 3.4337730662172 3.1931582938481 4.0472098552648 3.1573300446272 3.3132293234434 3.1648042223462 3.1629177065781 3.2135306993164 3.1863547103141 3.3643198251347 3.3775791003976 3.4332988917999 3.8283923017236 3.2354479418242 3.5426386461052 3.192330908656 3.171348223324 3.4191042972174 4.0755991036995 3.3716707360788 3.2929944159739 3.2568984936203 3.9249657132967 3.4558694712522 4.1918741593865 3.6504540261689 3.3935175666853 3.4056080298004 3.3245716437228 3.1997454858399 3.665646172064 3.5540521443137 3.4767886123196 3.5374362494379 3.6593871026936 3.5367269457389 3.8268609171676 3.1948075969497 3.4842453738312 4.3961986335425 4.0043812442792 3.7472902676169 3.3713849674704 3.8886512622281 3.2480924645433 3.6107104496679 3.4215504291614 3.993946862895 3.5401628479626 3.7301391460796 4.150951068737 3.4919417675759 4.0953405457804 3.6809938280875 3.6458090391923 3.8586830918185 3.9256265046901 4.0611714072501 3.7327612302275 4.0610073201584 3.4165483002517 3.3937045170322 3.3185541330405 3.3649320693328 3.5554846980178 3.9980638382539 4.0438660683281 3.9183720816143 3.6208935412911 3.9323040297374 3.9859436863722 4.1402093007396 4.4927288057287 4.2121471488908 3.549127522649 3.5556799984695 3.4576273131013 3.6772612355303 3.885708198628 3.3579818613618 3.6267245048942 3.828722805052 3.539631988852 3.7080324573823 3.569443142696 3.8960278662883 3.9363716871843 4.0251715656047 3.8539148506325 4.243991974872 4.2368772223199 4.1130729653943 4.0791977517661 4.02189587414 4.2001282496012 4.2219073863931 4.2075258215393 4.1566798249812 3.8515070216796 3.5290717316943 4.3653165236069 4.006720052683 3.7712827342563 3.9314982638639 4.0948243103625 4.1761981024736 3.8275527018898 3.9931473006522 4.2885155562079 4.2895516656774 4.35776737392 4.3817598120068 4.132915060594 4.4226382128821 4.3784969015622 
SCALARS 200.00_0.56 double 1
LOOKUP_TABLE default