# vtk DataFile Version 3.0
d-2__ created by libgimli-v1.1.0
ASCII
DATASET UNSTRUCTURED_GRID
POINTS 570 double
14.5	0	0
14.25	0	0
14.386963504964	-0.201738469428	0
22.399299936458	-0.310870122736	0
22.129824335287	-0.229914148082	0
22.126320781198	-0.518791771445	0
8.472303742627	-0.591754876635	0
8.780507935475	-0.76092407121	0
8.82173151259	-0.349253271447	0
18.663262297679	-0.667179415955	0
18.934786529245	-0.453308328646	0
18.636898038907	-0.29588182328	0
4.016904362632	-0.85330676142	0
4.076038737616	-0.331410355179	0
3.713721571226	-0.470767763626	0
1.89953779852	-0.269343012166	0
1.633800503821	-0.203067612233	0
1.644492760828	-0.441295523531	0
4.368408037607	-0.250833874131	0
4.337474161742	-0.544420985055	0
4.67745607622	-0.378433532554	0
1.406172533733	-0.772361039307	0
1.913288206557	-1.218576310882	0
1.90687689783	-0.651895683444	0
2.5	0	0
2.25	0	0
2.347047126858	-0.185539804102	0
1.374000926997	-0.300418771701	0
1.25	0	0
1.114902662369	-0.201591505098	0
1.067401015567	-0.470108640981	0
5.75	0	0
5.699780065382	-0.324747799653	0
5.924584257371	-0.172748359932	0
0.883560935405	-0.231136840652	0
1	0	0
9	0	0
9.117836368049	-0.253904480787	0
2.625577516194	-0.346770599322	0
17.859079774019	-0.943547525024	0
17.535029634209	-1.703182852412	0
18.338018094476	-1.366069799339	0
19.932263871771	-0.826489183604	0
19.881635677668	-0.346204516721	0
19.622287080959	-0.573770479943	0
1.5	0	0
1.75	0	0
23.25	0	0
23	0	0
23.109690227386	-0.220340974338	0
2.75	0	0
2.142562771237	-0.172460438312	0
2	0	0
23.332392704446	-0.202507275941	0
23.5	0	0
19	0	0
18.75	0	0
18.888143078348	-0.195773419804	0
2.90152418742	-0.185685383897	0
7.612175045312	-0.180627982114	0
7.527150943175	-0.401430797998	0
7.881917737402	-0.30462800112	0
25.630635194756	-0.512020961038	0
25.243766894324	-0.80097755811	0
25.758031115142	-0.952821630144	0
3	0	0
28.84859809239	-0.201276387394	0
29	0	0
28.75	0	0
4	0	0
3.835807353334	-0.199536243303	0
3.106904732949	-0.178783649348	0
29.25	0	0
29.092446172194	-0.305987136665	0
13.5	0	0
13.667851890428	-0.185102765244	0
13.75	0	0
3.75	0	0
14.407363653886	-0.441423674912	0
14.125469935998	-0.279652141152	0
4.25	0	0
5.061980176718	-0.407989246181	0
5.335512032876	-0.269401530321	0
5.113979852892	-0.173834924157	0
11.882046000841	-0.812345557852	0
12.478640631525	-1.146569360669	0
12.244190771573	-0.565936619511	0
3.633270844505	-0.195395238442	0
14	0	0
18.378272976509	-0.514977451159	0
5.5	0	0
9.619519097921	-1.16461851757	0
10.030576753886	-1.587265312651	0
9.961661342999	-1.070235523667	0
5.25	0	0
5	0	0
13.157975569138	-0.830425793913	0
13.83833027638	-1.238601004239	0
13.671302359608	-0.710707966059	0
11.325917093147	-0.8366783502	0
11.612143285947	-0.506264798476	0
6	0	0
7	0	0
6.83842404292	-0.188923754932	0
7.11236984822	-0.391746146843	0
6.631875629497	-0.169178192832	0
6.75	0	0
3.21002197083	-0.595267231049	0
3.445510026908	-0.608065324465	0
3.362318141622	-0.306501255187	0
6.120159502895	-0.164221934939	0
4.538525595924	-0.906226152762	0
13.233775457127	-1.737244787017	0
4.5	0	0
16.138065841822	-0.472802517973	0
16.126746690205	-0.221608117926	0
15.859319180798	-0.326402762318	0
26.080401003391	-0.227842452866	0
26.25	0	0
26	0	0
3.019224421113	-0.401469974918	0
8.234901607028	-0.35771789179	0
8.518285578354	-0.242327591839	0
8.328777073389	-0.153008859619	0
7.25	0	0
7.400656881666	-0.195280611572	0
7.5	0	0
5.385509485898	-0.709154879541	0
5.948697127931	-0.745234910621	0
8.75	0	0
8.5	0	0
8.25	0	0
2.214249105773	-0.404278959534	0
2.896561357202	-0.792481120253	0
9.25	0	0
4.920911116561	-0.192028847294	0
9.651670336652	-0.200847798694	0
9.849824537955	-0.19917205686	0
9.75	0	0
10.095049354068	-0.315754204277	0
10	0	0
3.25	0	0
6.738406513564	-0.710129601907	0
7.121614580011	-0.943026074581	0
11.345829942703	-0.314788260019	0
11.25	0	0
11.104427225455	-0.188863495516	0
6.052412255932	-0.372556729023	0
6.373371846535	-0.274163514827	0
10.25	0	0
10.380281579003	-0.241092027437	0
10.5	0	0
10.75	0	0
10.909079077441	-0.189427130481	0
11	0	0
6.25	0	0
6.5	0	0
4.75	0	0
3.5	0	0
10.672815698565	-0.318467932684	0
10.772487906066	-0.787092734739	0
11.020900486567	-0.439266778492	0
8	0	0
7.75	0	0
11.5	0	0
11.619450354737	-0.231443672836	0
11.75	0	0
8.139317726831	-0.163309591658	0
12.25	0	0
12.158949464947	-0.235415698299	0
12.412455385193	-0.275030800337	0
12.929165084344	-0.221336108042	0
12.686337592177	-0.258437422252	0
12.900449535554	-0.462768612232	0
12.5	0	0
9.405755833308	-0.325979504745	0
9.111697192308	-0.594170467817	0
9.457257345083	-0.753685223931	0
18.101369157139	-0.618560521812	0
18.336839281097	-0.861122419318	0
10.385948631267	-0.570640149046	0
9.5	0	0
13.411260455969	-0.342646276848	0
12.643108055516	-0.590179775368	0
13.137744715761	-0.195204172124	0
13	0	0
21.25	0	0
21.358341816502	-0.326561417551	0
21.5	0	0
13.816492716597	-0.40394453634	0
20.25	0	0
20.423452336785	-0.313445603959	0
20.5	0	0
17.789350393153	-0.390447709085	0
17.987794057246	-0.401472255242	0
17.881276545163	-0.206424156589	0
19.564465692234	-0.270867872644	0
19.290725118801	-0.49926248604	0
16.392319441256	-0.29915360323	0
19.443730892406	-0.923508713428	0
20.457987075478	-0.803203365193	0
20.167450719332	-0.505159975143	0
0.103762538371	-0.253013629949	0
0.267057015134	-0.483604909932	0
0.374713194419	-0.2320817565	0
13.25	0	0
17.415572543912	-0.230682214253	0
17.5	0	0
17.25	0	0
18.108153655084	-0.208141099276	0
18.25	0	0
18	0	0
15.75	0	0
15.544586046819	-0.246453491997	0
15.122708481244	-0.193620038745	0
15.25	0	0
15	0	0
19.75	0	0
24.149237782749	-0.319013340846	0
23.842766599446	-0.577371105011	0
24.183995039967	-0.73159476451	0
13.871646321742	-0.17394291424	0
23.862588150518	-0.245417872715	0
16.84024277193	-0.203626765466	0
16.704049384397	-0.435508179396	0
17.112673188265	-0.38804641709	0
24.75	0	0
24.832880292394	-0.290571430318	0
25	0	0
16.40158555625	-0.755912194683	0
16.850299990829	-0.757941865332	0
17.75	0	0
23.567455674596	-0.325197491724	0
16.25	0	0
16	0	0
22.645812614293	-0.197864648876	0
22.75	0	0
22.5	0	0
16.75	0	0
17	0	0
24	0	0
26.914424714815	-0.337869958787	0
26.621963281699	-0.624626679172	0
26.977877660759	-0.778408201088	0
26.622424322919	-0.264588309935	0
19.34462271879	-0.199329831305	0
19.25	0	0
19.118057075065	-0.225686869553	0
19.5	0	0
26.75	0	0
27	0	0
27.5	0	0
27.604422363523	-0.298869962794	0
27.75	0	0
17.650384190064	-0.227839036584	0
18.343198956448	-0.236734208617	0
18.5	0	0
24.25	0	0
20.143897114391	-0.233773711865	0
25.5	0	0
25.25	0	0
25.344389320279	-0.31693710653	0
21.059546193318	-0.24845941382	0
20	0	0
25.842927934822	-0.248287716678	0
25.75	0	0
25.613904645132	-0.216025146631	0
21	0	0
11.763551406169	-1.481607093928	0
30.981104050195	-0.5526690913	0
30.873880294509	-0.217692518774	0
30.706626759758	-0.34945139905	0
20.75	0	0
20.85240828135	-0.178025243856	0
23.75	0	0
20.66289882074	-0.189089155251	0
30.204950808504	-0.791758966623	0
30.715535843381	-1.149995259266	0
30.543724897762	-0.572259098027	0
30	0	0
30.180216671806	-0.343473673313	0
30.25	0	0
23.229584388362	-0.458653998547	0
29.5	0	0
29.623391954444	-0.322069028408	0
29.75	0	0
21.618913855927	-0.233585823579	0
21.75	0	0
29.348490380579	-0.521100538161	0
29.36294710412	-0.230601226356	0
22	0	0
22.25	0	0
28.25	0	0
28	0	0
28.129259193923	-0.314252106503	0
28.44374413871	-0.484576386004	0
28.100199615755	-0.812038297775	0
28.649230646972	-0.871769248311	0
28.618403654115	-0.227691192115	0
28.5	0	0
28.387848605749	-0.205892081491	0
29.054768525933	-0.708603081552	0
29.344906532636	-0.846887322836	0
26.327430876245	-0.35930637997	0
10.349120516034	-1.04150119828	0
10.894920134778	-1.514321070539	0
24.59640839418	-0.191760546865	0
12.75	0	0
24.5	0	0
13.102881121377	-0.411296235356	0
25.099388239946	-0.214879887129	0
25.97986022697	-0.52841375324	0
24.398993403151	-0.196312410538	0
17.860840746535	-0.577367743328	0
17.566481510048	-0.529340016102	0
26.5	0	0
16.637148248735	-0.188015807345	0
18.183918302467	-0.396443618316	0
27.159348252167	-0.205297590358	0
27.357530053515	-0.198815038154	0
27.25	0	0
15.060354649709	-1.112587998155	0
15.51532665618	-1.043792149387	0
15.178150912169	-0.713100616689	0
10.051363365948	-0.719159376333	0
14.661248691948	-0.27865166374	0
14.75	0	0
27.868836823455	-0.217301839861	0
31	0	0
30.75	0	0
-0.020273477909	-1.415389842481	0
1.054972770973	-1.487485199502	0
0.512583677021	-1.0438154777	0
0.75	0	0
2.361419414365	-0.794513604096	0
29.890297721653	-0.2433406165	0
30.473599299501	-0.238575611274	0
30.5	0	0
30.660802173874	-0.161931182737	0
28.783812899585	-0.467926883932	0
4.937022539393	-0.72440615077	0
6.696914540879	-0.380672503721	0
7.434272221796	-0.695675918868	0
15.339606453815	-0.166204802571	0
15.281953315711	-0.388999642276	0
11.893544445085	-0.335972898148	0
12	0	0
9.753796445798	-0.478866225926	0
7.720012958977	-0.638314519759	0
21.871398197179	-0.313006985103	0
21.615176662754	-0.521922347305	0
21.856785525528	-0.665128848631	0
20.792152536902	-0.448319093295	0
21.109577821412	-0.527879642114	0
21.360297691811	-0.734200004244	0
15.547854961707	-0.580173571081	0
24.496861814148	-0.467031445896	0
25.067351422649	-0.463427753535	0
24.81263825963	-0.684738154192	0
22.865620821195	-0.218348593093	0
23.443705587002	-0.773171720633	0
27.277617447467	-0.489224417775	0
27.863714790534	-0.471681393437	0
26.239117668995	-0.863279739365	0
29.896797054636	-0.547765129844	0
29.612773839625	-0.699757135752	0
29.867172666547	-0.87444432816	0
29.610354212963	-1.521444655905	0
29.59548165142	-1.071765512911	0
29.115129171034	-1.220660174798	0
31.345359428525	-0.458952144926	0
31.144859415042	-0.241304201582	0
15.919565295974	-0.746550096707	0
16.063006820294	-1.289595303187	0
16.5	0	0
14.900855313538	-0.178071167744	0
14.161016743654	-0.72559708689	0
19.011498044983	-0.834202892304	0
16.760433281999	-1.263698818643	0
17.280361389946	-0.931704507314	0
-0.627742252535	-0.296285438777	0
-1	0	0
-1	-0.5	0
0.625738545692	-0.228405936136	0
0.5	0	0
3.313957665883	-0.865581185485	0
3.619156095452	-0.800599314657	0
[...]
CELL_DATA 986
SCALARS 100.00_0.33 double 1
LOOKUP_TABLE default
10.050742906914 9.7898686731994 8.8362639394834 7.4455589385697 6.7050760825654 9.9402695920896 9.2453861625188 6.6067533755774 10.457928789151 8.9467129717367 8.6086035940592 9.6075550666948 8.9140741974431 10.727354587781 10.847745862075 8.6456609946026 4.6122749075632 8.6848029749093 10.667034758386 11.127574495701 11.27407811196 10.734795315832 10.618716834908 10.264232691838 11.596913791627 10.302895734165 9.9947067705069 6.7364474537906 9.9898421750009 11.101674036289 8.4771403799359 9.9452161282691 10.47908204841 10.644181988724 7.5595424172651 10.649248875844 11.37921642163 9.6697921185861 5.7711543376568 7.505424623032 11.156318125674 6.7887910431042 10.39957888582 4.9437493181197 10.011738837763 9.3046903315835 7.0135465321372 7.1288112816595 9.3762295862928 9.5079164708139 8.9364086331995 6.9118297519283 6.6199986396561 9.7849446046812 7.5207908955324 9.8935806283364 4.9435666941325 12.97920213868 9.3246693251316 6.7805829341103 10.02517299632 9.2489211674527 11.449454512829 11.014063366369 14.076714970954 13.363229150861 8.090995085022 7.4115472325762 11.056150948537 8.7084844513554 11.742104313089 11.049623213203 11.167734411926 11.542136839274 10.3929131746 7.8507211513715 11.039699185683 10.369918186823 13.480507927922 11.682666798867 10.027242400414 6.3873200602821 10.089967818081 9.0176143410172 11.673402592889 13.169821537109 9.0729327148944 10.522822456258 14.444157371895 14.682665735368 10.121875276551 9.6639638916208 8.7653010718975 9.9834051605655 9.5985641841979 11.452595848043 11.693180805218 11.25333282688 10.628310360917 9.7456245476401 14.754693823683 9.8578712462941 8.3411798497629 17.319245065203 7.1395856017591 6.128764190298 10.294293463912 7.7145761079146 9.0149396045005 8.8697844095271 7.9514715475054 9.8216525915797 9.2232866873122 8.4863332362321 9.9910819764728 12.210268285967 8.792567046684 10.600189327153 9.5803778043992 9.6209950121434 7.7446042716311 11.375169754494 8.9490755757009 7.8348830305932 8.3679085961656 10.003928105985 8.4719934563378 7.2347734692921 10.405558346964 9.4676924096221 8.1656312365527 10.849301508805 10.982782873904 10.392409366355 7.0310815723624 10.183894069685 8.0833810910303 11.213187441433 12.063620078013 8.5562751974039 10.488805499955 8.2593526577995 9.1635271942007 10.612682902771 13.188657432796 12.019995396419 8.8400993407011 6.6398643774925 9.173253093397 7.6847044816182 11.614816879743 12.730874831216 8.1740803090572 10.908027691565 9.6583569918952 11.563872445056 11.149852378572 8.0312263445029 8.0353058106162 8.3057763102326 12.670338448172 10.351335165381 8.1881940452887 14.011970464366 11.487404352194 8.3673771572173 5.5294113868323 8.8275436530996 12.770527030499 9.8419915147812 12.708332586876 10.33396532773 6.3329738867097 7.9395949389999 9.8360685937657 10.212631678452 10.29413485119 9.3850808662888 8.8993509750041 9.8801808501955 11.285539046962 9.8322361172692 10.176585546901 6.8069484181613 7.1732631812324 11.927459850717 10.692554149227 11.21087957539 9.0297593135692 6.8865826764702 7.973558602024 5.97492610436 9.3200464050648 5.8167519137272 10.84108791248 9.495663598605 5.8930195918048 9.7453380559429 10.734221986414 9.3866457711929 11.14891516212 9.5034138324519 6.2768091981693 9.2847036349771 9.8179453548592 7.173841623218 9.6399254030014 9.941274050616 9.6343940012442 11.42204138691 9.5505505122862 11.46606163526 8.7602416732792 7.4867473324237 7.9616482732827 7.9564449492332 5.4221854965772 8.5052386775194 5.8969393079575 9.1192200528886 9.9298064733911 10.35480078984 11.035673046117 12.020976305441 9.5980450907488 10.538531759931 10.727861444613 10.117085627718 9.1241175543269 10.660713267645 10.437034033886 5.4323019625349 9.8756216818856 9.9356811094 9.2235944682339 11.28457980109 9.723481107892 7.2562377474791 9.2538670223565 9.2265657431398 8.0816832940521 7.7008583799148 10.959117899787 9.6135258663595 9.4951730247252 11.16330799267 7.6202018672168 9.7854910025067 9.2531180020689 8.5437263598261 7.4891015158133 8.3912044478344 7.0242909700201 10.080613982979 10.522576379824 7.3985761235291 9.7715670767173 10.039677941524 10.456181634706 7.799718838569 9.3813518834897 9.2664116107272 11.372936074508 10.047010289124 7.8627800643902 11.895428032984 8.3458560916431 10.088171986439 6.9040113621879 7.4399542958836 9.4004343541534 10.581423174588 9.4721226881561 9.4098842476098 10.140865999261 10.990563155111 7.7609271762935 9.4662115035081 9.9169098247952 8.2770255033306 8.3251946273372 9.6934307407429 12.333373160968 11.336520949596 6.9317192366319 11.70718235416 9.6841971232103 11.870555331535 13.962769218838 10.881790527097 8.8378145530559 8.3419894392754 7.8599747315402 10.633568978996 8.9359292573196 11.273121227236 8.5413134636986 10.319427272552 13.986732783682 9.794207214466 7.0182205992496 10.450030684065 12.695670903198 11.061444251389 6.5685337614953 8.0979437104941 9.7017539966346 10.594294423888 9.2935143435762 10.507862717576 9.8892718351214 10.293443187902 8.073715271159 8.8905551138184 9.3013125532466 8.4607647403297 10.586572487909 7.7849803226846 7.8292231966341 10.955756775318 8.6459393212901 9.8440014538296 8.1106703320171 7.818646060937 8.8481483873173 8.8184491337642 12.293965888281 7.3301324333332 6.460346130804 4.8587627285354 8.5894834209156 7.3622554547215 9.1912194598164 9.3141436675761 8.153764648927 9.7723835634335 9.1806641893718 10.225592329185 8.3090065040059 10.466572782153 5.3286147579322 5.7989786493864 11.983273954408 9.8735674820687 11.046413299364 10.314387067401 11.333591277617 13.221352010797 10.28337004637 7.2502101182529 9.0383525477481 6.7667880075949 10.168262366301 5.9745951133699 7.1861671499011 6.5854738796485 6.5697033239793 8.1311432690624 6.3279331647888 8.5829716731076 7.880389729652 5.6323797660431 8.0170704880399 9.0785612288524 10.636668837944 7.3183935391778 6.420114377799 5.7779893110378 7.6260713057125 10.723964556514 10.476429385499 7.8467431893058 7.4143967970778 6.4980355916878 8.0583285166235 9.3268049498834 7.7509217598924 10.88929487108 10.723176434546 6.3895808026395 5.4993441054378 7.1293266256251 9.3703068133581 8.7956065019481 11.974444516127 16.153000463131 8.9146092662707 10.468342774089 7.1467763118409 12.521300140373 9.0025265741938 8.0766477199859 6.0236958555842 9.9940788495379 8.0460451786828 10.207182985965 7.3586764020181 9.3636715158703 8.249275370526 9.3218652306115 10.870493176396 11.105613683221 9.7137666463274 7.7107462377188 6.3676358743776 12.847102368464 6.254019420549 9.7744131405283 10.989683526593 7.560726472776 12.288649060014 8.9570312047126 7.7077754567938 8.0596513678109 9.7041467182789 8.0106030237199 7.1052701117913 7.2650832505082 5.8954860107033 7.2697343714765 6.398100122174 10.468776932491 9.4425078644083 7.0489115089362 7.4685644792805 8.1316692932785 6.6814218545542 6.9321928542348 8.0467889437293 7.2442331668392 7.6693245332401 11.413710229924 10.10475152176 9.0114313021863 8.6131160747072 9.6909200122975 5.4340718909492 8.1538911784594 5.0069591646724 7.7867400120888 5.4668711473559 7.9334725043812 9.9091163767674 9.3175996075944 5.6649241577358 8.731137738046 4.6441362243238 7.8904242451912 6.6789721648544 7.2714346701494 10.322610132746 10.971474524931 10.757998365475 7.1380332810121 5.7090918671753 4.3842718227801 7.3943236774962 10.333464922127 8.4526402348738 8.5690071879709 8.0667538189347 8.7271372965533 8.6692682011515 7.8123546665314 6.8442353831369 5.0196221896112 6.2972226175615 7.2483471452207 5.7598798279612 5.1832775207289 5.9259566183749 9.7529874222338 7.0983319008895 5.0827972793071 4.4942887006291 10.611364650875 8.007947688556 7.5966874270831 7.0617352627849 5.8329725498773 6.9532690633309 5.6171681176701 5.6534518926183 10.68206013148 8.5374440552897 7.071457913495 7.6042094654601 10.783029674896 7.6962306302071 7.6914650063827 4.8075621184192 9.1482253523522 10.725528135471 11.325946237563 6.7682055102296 5.9205896819202 4.8968078416065 4.0176800140754 6.7539003299952 9.1642188831452 6.6368037866162 6.8142023793768 5.3724082013648 6.4756636219703 8.2878200666499 10.996420736524 5.5470851997638 9.4187279153835 10.834635373363 4.1759360595927 8.5140133584453 14.378089289138 9.7578761213777 5.5803121980387 8.41135149389 8.0145289695517 6.6486844892703 6.0193156883985 5.2257765053557 9.9777775923169 9.9729845422194 5.1895013869814 7.961256206959 7.583141289277 6.0291163097188 5.6911162767651 4.8489254184556 10.263009451483 8.9506081935364 8.3269426460245 6.92666507516 8.5211906823021 7.6380111501065 8.8092923670317 6.9111791498641 8.3201763735195 9.8613800184513 9.2214398292602 5.1219773412549 3.8213432136216 8.0263222846912 6.0974144087869 8.3242666121269 9.3086321593417 5.4437409317276 8.8865306350347 3.9164476681878 5.9505115147616 3.725305003548 4.4277673230508 8.064763915791 5.6122323916491 6.6877565517401 5.764865257302 8.1466401682382 7.7344836037984 6.2910981917507 7.7778225591331 5.4909601075809 6.2263098672094 6.5426638044408 6.0439470532592 8.211378520307 5.9426127730583 7.0504551530701 9.606243245364 5.533669604732 4.803460500675 7.3326121344678 6.8707391167857 11.115629954077 5.8666477501168 8.3468408878609 7.3019521459317 9.7218424245166 9.4461224494927 5.6657018756243 3.9828286732893 8.0856159409271 6.9459685203507 6.5076276125842 6.7170046708132 11.184555513758 8.0005706894547 5.1107266206087 7.7688821430126 10.054789191704 8.1829891310812 8.5427913914918 7.4918866897867 7.8367504240143 6.7943764389015 4.1217655850774 6.4161142736727 4.3507530264738 8.0705888380748 7.160096789818 6.8736834635888 5.7089031488821 6.5725689722948 7.4346183234367 7.2210746861249 7.3141705354479 5.9942432628376 4.7796604373267 3.9515411843723 5.0528740474519 6.8473710524013 9.7241344505877 7.2193556869021 6.3860981042708 6.7636407313384 5.4119250270463 11.400955307607 5.1562196081494 10.707108870956 8.2887081549514 3.8856590708838 8.6589588248555 8.2176848224298 6.9586260544748 8.4269429696523 7.2013188564471 5.8273208221049 5.8826242734019 5.3624481221235 7.1915941644616 6.7271915805344 4.0791627799294 4.9987282380012 4.2933407068539 5.525400826697 4.7903911068805 9.2827613209906 5.4447503691392 8.2413208326067 4.8064362967583 4.9125787169954 4.9968112724903 7.4379841610349 4.4062053946785 4.426146351389 6.5976866002439 4.9163065979995 3.8280576813515 5.7348653693099 9.0088752167571 8.6769446029366 6.9564013075628 4.5157919148372 4.9978585482942 4.5650120783197 7.8143672788311 6.7911910192556 7.7114370334801 6.9025351282085 9.0318506901345 8.6004750821068 5.4939198411966 8.6101577540489 5.6778328511156 8.4373050288363 5.7957198362989 7.8993650409013 8.809882600615 6.7626270154389 7.9142909142406 7.5161431742726 7.836303739542 8.4077823327429 8.6175752122294 7.12949904923 7.9937257236572 4.2058129312513 5.5603142663051 8.1910493641786 4.7005898780558 9.1047672113943 6.8559803509063 6.0569234201563 6.1196283012833 6.263481914924 5.3394579164845 4.8768186320826 4.8313471770021 4.6916913768584 4.8936614349629 10.060602848695 9.0229447583072 9.9367070494915 9.5836610854659 4.7811173481436 3.7127151132212 4.9073806153593 5.4369554829773 6.0307113570116 5.4931737453172 5.6879169896728 5.1011552849547 5.9383216130569 6.2837245175913 6.0330183556057 5.9201890277677 6.0552686524318 6.6415346020199 5.5639643969835 5.2548398927426 7.6796706058908 7.5334095855849 4.6295425805147 3.4886074115674 3.4468877484614 4.3142591834293 4.0334381780838 6.8018083810306 5.6853436736878 6.8020770770294 6.2837899114692 12.267918677422 11.838959076745 3.9631716167639 4.4645813241712 7.2099727808285 5.3221294264469 3.7622611086536 3.9322236107623 5.1430689497556 6.7867605349465 9.2380881478101 6.3191542258172 7.4821012277425 5.1227486333366 5.1808170095138 9.4009180966372 4.8643157440828 6.2292129642561 10.081132967816 4.8614265948151 4.2080478883742 7.3663052612573 8.0280094180656 5.0508850621797 4.4486532865422 4.4376188306636 6.172286178638 4.0158082808241 4.9348714436977 3.6858474153721 3.6310924975826 4.108993153456 8.4765120279213 4.6072273327889 5.564262544592 4.6600956393644 5.208091884407 4.369072973808 5.3571698838631 8.2055102702848 3.6730267895871 6.1924801911678 3.516991946133 3.967806652806 5.1138042309363 4.2339304964319 3.8515539435251 3.8691380726664 4.3767366179746 4.1986494582463 4.6570135988085 3.8548976259909 7.2148913437179 4.9410311863282 3.7646043643205 4.1765187527062 4.8166273691207 4.7420665545814 6.9075065001259 7.0967794035176 6.4978105154083 7.0519084647186 6.2096262686531 6.593194274589 5.8766479202235 5.9245758402436 6.4700291332308 6.3074265246942 5.2797395700119 5.8232060403386 6.0862616978149 6.3954469392608 5.9682580608714 3.4950523540883 4.5734953611956 5.6181477801755 4.6113880078002 4.3715154737308 3.9552631786717 4.079193838015 3.6719147013767 4.3625037830363 3.8706097714747 4.2583267424289 4.843833423744 11.126501060706 4.3781047347628 5.2449709154793 4.9750267026231 9.1972838772645 7.5286679534067 3.8239626901211 3.7186139763052 3.5168936293757 4.4692236597561 4.9369431261366 12.498201266203 3.7443134263234 4.1204095464588 4.3571616889151 3.4957928499925 4.6285461377712 5.6283515618188 4.8821051011858 4.8021242162018 3.9183827111065 4.8151687765875 4.1940581803119 3.6895622730667 4.5598026629397 3.531551257452 3.7758667475999 4.5323394789638 4.3812629091306 3.4534429092027 3.7458978047792 3.4073010784966 3.5760855591746 3.4739945041518 3.5263332972929 3.6437319663237 4.2142291227423 4.186233121778 5.3146935062402 5.3953665931066 3.7934841790726 3.5423384308495 3.4564878582703 4.1902675866486 3.5599952742392 3.555772796067 3.5988437049958 3.6069843450918 3.586327938264 3.7998091157309 3.5490629875314 4.3030688692535 3.365466855671 3.5378702459505 4.1134950111032 3.9295907222392 3.4212075241103 3.3992228530813 3.586784341848 3.6263938965564 3.3979252449521 3.4242196816459 3.4563876958104 3.5395475377532 3.5113627718423 3.5436130509466 3.905536147137 3.6074001272839 3.6706100627781 3.4538620222416 4.1942890924123 3.445107384211 3.5553228901135 3.357851227964 3.3615557471262 3.4146031830126 3.4211214866044 3.5186348022183 3.5563819440825 3.6323301541315 4.3678070415157 3.5132544932719 3.8745049391582 3.3968035545586 3.4754543114048 3.676954110054 4.1231171416425 3.6179010850215 3.5473348538997 3.3937312254973 4.4444816860502 3.7941876279691 4.1717828232583 3.9671117518653 3.543816831181 3.5513135637565 3.5057463881346 3.3791224885625 3.8769124010575 3.6905653702283 3.6975977360568 3.6897287497442 3.9468659898514 3.7080056153819 4.1569579501401 3.4308571531832 3.6276504713963 4.4046611967459 4.3024287110853 3.8247843445646 3.5767949798984 3.980302412889 3.4153197966629 3.8248647412265 3.5760357820568 4.1395143423077 3.6461530173841 3.791828411459 4.3773730344079 3.667527328263 4.3578919520643 3.8844265655492 3.7928088230035 4.0578836016016 4.1792477135894 4.1575952568342 3.8130658947685 4.0745787631736 3.5727934432657 3.5691487037836 3.5784473511092 3.5916138651012 3.7428050867216 4.3554325439351 4.1253859757893 4.052627655952 3.7588633556796 4.0219081264277 4.0017621922668 4.2442660842966 4.4633232369396 4.2787762755659 3.7649897433376 3.6797120488055 3.695586476672 3.8552854116818 4.1614573534951 3.5435841397995 3.7152268258823 3.9121942091382 3.7214556097363 3.901949884216 3.7449764030773 4.0914938604367 4.1410036588203 4.2020072564915 4.0427986486248 4.2830698491765 4.4329801459784 4.3061920801367 4.2866547717258 4.2101929132909 4.384243230618 4.4323486246529 4.3730435447613 4.3077052076595 3.9278740594332 3.6617992306044 4.3503064056787 4.0108887544875 3.8339031106866 3.9842063902021 4.1069199561292 4.2927461817784 4.0121521053138 4.1356216138513 4.3493035139825 4.28200003815 4.3285629593243 4.3446064396245 4.1443338423309 4.372993375881 4.3313370002597 
SCALARS 200.00_0.71 double 1
LOOKUP_TABLE default