# vtk DataFile Version 3.0
d-2__ created by libgimli-v1.1.0
ASCII
DATASET UNSTRUCTURED_GRID
POINTS 570 double
14.5	0	0
14.25	0	0
14.386963504964	-0.201738469428	0
22.399299936458	-0.310870122736	0
22.129824335287	-0.229914148082	0
22.126320781198	-0.518791771445	0
8.472303742627	-0.591754876635	0
8.780507935475	-0.76092407121	0
8.82173151259	-0.349253271447	0
18.663262297679	-0.667179415955	0
18.934786529245	-0.453308328646	0
18.636898038907	-0.29588182328	0
4.016904362632	-0.85330676142	0
4.076038737616	-0.331410355179	0
3.713721571226	-0.470767763626	0
1.89953779852	-0.269343012166	0
1.633800503821	-0.203067612233	0
1.644492760828	-0.441295523531	0
4.368408037607	-0.250833874131	0
4.337474161742	-0.544420985055	0
4.67745607622	-0.378433532554	0
1.406172533733	-0.772361039307	0
1.913288206557	-1.218576310882	0
1.90687689783	-0.651895683444	0
2.5	0	0
2.25	0	0
2.347047126858	-0.185539804102	0
1.374000926997	-0.300418771701	0
1.25	0	0
1.114902662369	-0.201591505098	0
1.067401015567	-0.470108640981	0
5.75	0	0
5.699780065382	-0.324747799653	0
5.924584257371	-0.172748359932	0
0.883560935405	-0.231136840652	0
1	0	0
9	0	0
9.117836368049	-0.253904480787	0
2.625577516194	-0.346770599322	0
17.859079774019	-0.943547525024	0
17.535029634209	-1.703182852412	0
18.338018094476	-1.366069799339	0
19.932263871771	-0.826489183604	0
19.881635677668	-0.346204516721	0
19.622287080959	-0.573770479943	0
1.5	0	0
1.75	0	0
23.25	0	0
23	0	0
23.109690227386	-0.220340974338	0
2.75	0	0
2.142562771237	-0.172460438312	0
2	0	0
23.332392704446	-0.202507275941	0
23.5	0	0
19	0	0
18.75	0	0
18.888143078348	-0.195773419804	0
2.90152418742	-0.185685383897	0
7.612175045312	-0.180627982114	0
7.527150943175	-0.401430797998	0
7.881917737402	-0.30462800112	0
25.630635194756	-0.512020961038	0
25.243766894324	-0.80097755811	0
25.758031115142	-0.952821630144	0
3	0	0
28.84859809239	-0.201276387394	0
29	0	0
28.75	0	0
4	0	0
3.835807353334	-0.199536243303	0
3.106904732949	-0.178783649348	0
29.25	0	0
29.092446172194	-0.305987136665	0
13.5	0	0
13.667851890428	-0.185102765244	0
13.75	0	0
3.75	0	0
14.407363653886	-0.441423674912	0
14.125469935998	-0.279652141152	0
4.25	0	0
5.061980176718	-0.407989246181	0
5.335512032876	-0.269401530321	0
5.113979852892	-0.173834924157	0
11.882046000841	-0.812345557852	0
12.478640631525	-1.146569360669	0
12.244190771573	-0.565936619511	0
3.633270844505	-0.195395238442	0
14	0	0
18.378272976509	-0.514977451159	0
5.5	0	0
9.619519097921	-1.16461851757	0
10.030576753886	-1.587265312651	0
9.961661342999	-1.070235523667	0
5.25	0	0
5	0	0
13.157975569138	-0.830425793913	0
13.83833027638	-1.238601004239	0
13.671302359608	-0.710707966059	0
11.325917093147	-0.8366783502	0
11.612143285947	-0.506264798476	0
6	0	0
7	0	0
6.83842404292	-0.188923754932	0
7.11236984822	-0.391746146843	0
6.631875629497	-0.169178192832	0
6.75	0	0
3.21002197083	-0.595267231049	0
3.445510026908	-0.608065324465	0
3.362318141622	-0.306501255187	0
6.120159502895	-0.164221934939	0
4.538525595924	-0.906226152762	0
13.233775457127	-1.737244787017	0
4.5	0	0
16.138065841822	-0.472802517973	0
16.126746690205	-0.221608117926	0
15.859319180798	-0.326402762318	0
26.080401003391	-0.227842452866	0
26.25	0	0
26	0	0
3.019224421113	-0.401469974918	0
8.234901607028	-0.35771789179	0
8.518285578354	-0.242327591839	0
8.328777073389	-0.153008859619	0
7.25	0	0
7.400656881666	-0.195280611572	0
7.5	0	0
5.385509485898	-0.709154879541	0
5.948697127931	-0.745234910621	0
8.75	0	0
8.5	0	0
8.25	0	0
2.214249105773	-0.404278959534	0
2.896561357202	-0.792481120253	0
9.25	0	0
4.920911116561	-0.192028847294	0
9.651670336652	-0.200847798694	0
9.849824537955	-0.19917205686	0
9.75	0	0
10.095049354068	-0.315754204277	0
10	0	0
3.25	0	0
6.738406513564	-0.710129601907	0
7.121614580011	-0.943026074581	0
11.345829942703	-0.314788260019	0
11.25	0	0
11.104427225455	-0.188863495516	0
6.052412255932	-0.372556729023	0
6.373371846535	-0.274163514827	0
10.25	0	0
10.380281579003	-0.241092027437	0
10.5	0	0
10.75	0	0
10.909079077441	-0.189427130481	0
11	0	0
6.25	0	0
6.5	0	0
4.75	0	0
3.5	0	0
10.672815698565	-0.318467932684	0
10.772487906066	-0.787092734739	0
11.020900486567	-0.439266778492	0
8	0	0
7.75	0	0
11.5	0	0
11.619450354737	-0.231443672836	0
11.75	0	0
8.139317726831	-0.163309591658	0
12.25	0	0
12.158949464947	-0.235415698299	0
12.412455385193	-0.275030800337	0
12.929165084344	-0.221336108042	0
12.686337592177	-0.258437422252	0
12.900449535554	-0.462768612232	0
12.5	0	0
9.405755833308	-0.325979504745	0
9.111697192308	-0.594170467817	0
9.457257345083	-0.753685223931	0
18.101369157139	-0.618560521812	0
18.336839281097	-0.861122419318	0
10.385948631267	-0.570640149046	0
9.5	0	0
13.411260455969	-0.342646276848	0
12.643108055516	-0.590179775368	0
13.137744715761	-0.195204172124	0
13	0	0
21.25	0	0
21.358341816502	-0.326561417551	0
21.5	0	0
13.816492716597	-0.40394453634	0
20.25	0	0
20.423452336785	-0.313445603959	0
20.5	0	0
17.789350393153	-0.390447709085	0
17.987794057246	-0.401472255242	0
17.881276545163	-0.206424156589	0
19.564465692234	-0.270867872644	0
19.290725118801	-0.49926248604	0
16.392319441256	-0.29915360323	0
19.443730892406	-0.923508713428	0
20.457987075478	-0.803203365193	0
20.167450719332	-0.505159975143	0
0.103762538371	-0.253013629949	0
0.267057015134	-0.483604909932	0
0.374713194419	-0.2320817565	0
13.25	0	0
17.415572543912	-0.230682214253	0
17.5	0	0
17.25	0	0
18.108153655084	-0.208141099276	0
18.25	0	0
18	0	0
15.75	0	0
15.544586046819	-0.246453491997	0
15.122708481244	-0.193620038745	0
15.25	0	0
15	0	0
19.75	0	0
24.149237782749	-0.319013340846	0
23.842766599446	-0.577371105011	0
24.183995039967	-0.73159476451	0
13.871646321742	-0.17394291424	0
23.862588150518	-0.245417872715	0
16.84024277193	-0.203626765466	0
16.704049384397	-0.435508179396	0
17.112673188265	-0.38804641709	0
24.75	0	0
24.832880292394	-0.290571430318	0
25	0	0
16.40158555625	-0.755912194683	0
16.850299990829	-0.757941865332	0
17.75	0	0
23.567455674596	-0.325197491724	0
16.25	0	0
16	0	0
22.645812614293	-0.197864648876	0
22.75	0	0
22.5	0	0
16.75	0	0
17	0	0
24	0	0
26.914424714815	-0.337869958787	0
26.621963281699	-0.624626679172	0
26.977877660759	-0.778408201088	0
26.622424322919	-0.264588309935	0
19.34462271879	-0.199329831305	0
19.25	0	0
19.118057075065	-0.225686869553	0
19.5	0	0
26.75	0	0
27	0	0
27.5	0	0
27.604422363523	-0.298869962794	0
27.75	0	0
17.650384190064	-0.227839036584	0
18.343198956448	-0.236734208617	0
18.5	0	0
24.25	0	0
20.143897114391	-0.233773711865	0
25.5	0	0
25.25	0	0
25.344389320279	-0.31693710653	0
21.059546193318	-0.24845941382	0
20	0	0
25.842927934822	-0.248287716678	0
25.75	0	0
25.613904645132	-0.216025146631	0
21	0	0
11.763551406169	-1.481607093928	0
30.981104050195	-0.5526690913	0
30.873880294509	-0.217692518774	0
30.706626759758	-0.34945139905	0
20.75	0	0
20.85240828135	-0.178025243856	0
23.75	0	0
20.66289882074	-0.189089155251	0
30.204950808504	-0.791758966623	0
30.715535843381	-1.149995259266	0
30.543724897762	-0.572259098027	0
30	0	0
30.180216671806	-0.343473673313	0
30.25	0	0
23.229584388362	-0.458653998547	0
29.5	0	0
29.623391954444	-0.322069028408	0
29.75	0	0
21.618913855927	-0.233585823579	0
21.75	0	0
29.348490380579	-0.521100538161	0
29.36294710412	-0.230601226356	0
22	0	0
22.25	0	0
28.25	0	0
28	0	0
28.129259193923	-0.314252106503	0
28.44374413871	-0.484576386004	0
28.100199615755	-0.812038297775	0
28.649230646972	-0.871769248311	0
28.618403654115	-0.227691192115	0
28.5	0	0
28.387848605749	-0.205892081491	0
29.054768525933	-0.708603081552	0
29.344906532636	-0.846887322836	0
26.327430876245	-0.35930637997	0
10.349120516034	-1.04150119828	0
10.894920134778	-1.514321070539	0
24.59640839418	-0.191760546865	0
12.75	0	0
24.5	0	0
13.102881121377	-0.411296235356	0
25.099388239946	-0.214879887129	0
25.97986022697	-0.52841375324	0
24.398993403151	-0.196312410538	0
17.860840746535	-0.577367743328	0
17.566481510048	-0.529340016102	0
26.5	0	0
16.637148248735	-0.188015807345	0
18.183918302467	-0.396443618316	0
27.159348252167	-0.205297590358	0
27.357530053515	-0.198815038154	0
27.25	0	0
15.060354649709	-1.112587998155	0
15.51532665618	-1.043792149387	0
15.178150912169	-0.713100616689	0
10.051363365948	-0.719159376333	0
14.661248691948	-0.27865166374	0
14.75	0	0
27.868836823455	-0.217301839861	0
31	0	0
30.75	0	0
-0.020273477909	-1.415389842481	0
1.054972770973	-1.487485199502	0
0.512583677021	-1.0438154777	0
0.75	0	0
2.361419414365	-0.794513604096	0
29.890297721653	-0.2433406165	0
30.473599299501	-0.238575611274	0
30.5	0	0
30.660802173874	-0.161931182737	0
28.783812899585	-0.467926883932	0
4.937022539393	-0.72440615077	0
6.696914540879	-0.380672503721	0
7.434272221796	-0.695675918868	0
15.339606453815	-0.166204802571	0
15.281953315711	-0.388999642276	0
11.893544445085	-0.335972898148	0
12	0	0
9.753796445798	-0.478866225926	0
7.720012958977	-0.638314519759	0
21.871398197179	-0.313006985103	0
21.615176662754	-0.521922347305	0
21.856785525528	-0.665128848631	0
20.792152536902	-0.448319093295	0
21.109577821412	-0.527879642114	0
21.360297691811	-0.734200004244	0
15.547854961707	-0.580173571081	0
24.496861814148	-0.467031445896	0
25.067351422649	-0.463427753535	0
24.81263825963	-0.684738154192	0
22.865620821195	-0.218348593093	0
23.443705587002	-0.773171720633	0
27.277617447467	-0.489224417775	0
27.863714790534	-0.471681393437	0
26.239117668995	-0.863279739365	0
29.896797054636	-0.547765129844	0
29.612773839625	-0.699757135752	0
29.867172666547	-0.87444432816	0
29.610354212963	-1.521444655905	0
29.59548165142	-1.071765512911	0
29.115129171034	-1.220660174798	0
31.345359428525	-0.458952144926	0
31.144859415042	-0.241304201582	0
15.919565295974	-0.746550096707	0
16.063006820294	-1.289595303187	0
16.5	0	0
14.900855313538	-0.178071167744	0
14.161016743654	-0.72559708689	0
19.011498044983	-0.834202892304	0
16.760433281999	-1.263698818643	0
17.280361389946	-0.931704507314	0
-0.627742252535	-0.296285438777	0
-1	0	0
-1	-0.5	0
0.625738545692	-0.228405936136	0
0.5	0	0
3.313957665883	-0.865581185485	0
3.619156095452	-0.800599314657	0
[...]
CELL_DATA 986
SCALARS 100.00_0.58 double 1
LOOKUP_TABLE default
8.0798009254511 9.3041049189637 8.2542173526217 6.7969911805743 5.9876390583276 9.3943746079893 9.5708829084055 6.5425471361791 9.8176179674377 8.1159966798486 8.2543901522355 8.0409335125081 8.9513926873964 11.061649853725 9.9412757783199 7.5885488945307 4.2868852524288 8.1743878682828 9.8147227272859 9.3488103808783 9.3852420208376 9.9828666996483 9.8747946758223 9.6053650513711 13.178779140462 8.8975694958446 9.4247671164103 6.4420307106508 8.4552426104319 9.8825724329332 7.5663054989515 10.663480053648 9.6071397557535 13.267883872739 5.3134026209458 9.6348689972047 13.841698645982 9.490543086209 5.3027793582053 5.3559204759734 7.9367932097553 5.8647069187823 10.054991240566 4.6849529542543 11.009163283838 9.6947632709651 6.1927974705164 6.5203804248588 7.7312378882706 8.6180129236628 8.0399368901517 5.751217991175 6.1043156190263 9.1988856344597 7.3359251122518 8.0806293120606 4.5145326160776 16.376933498327 7.9478998339491 5.7246454950973 8.3638737348295 8.928029525703 11.261345817995 9.9269171914826 14.536650503322 13.459743062819 7.6439455823458 7.4044553511207 10.063863919972 9.572024765332 10.547602419543 11.939571908634 13.793754891046 11.182721127116 9.7749272384126 7.6763097521301 12.528659296311 9.7981782174924 11.020067855203 10.199680231587 13.136272565383 5.8512301923168 9.6636983955379 8.6458060482204 8.6676439573335 13.927869147965 9.1177966991729 8.3170735183267 14.197533511536 12.64284716967 8.6426668672451 8.9761927215853 10.410620506776 10.401447711557 9.2104464980932 9.798907340883 10.793288654013 10.436611442973 11.658438330411 9.2013248288646 14.873385258328 7.6934904602558 7.694318176359 17.577062994269 6.6654061909982 5.353493451971 9.4868088383251 8.3010750930398 7.8543378479408 9.5771946012034 7.2879274222612 9.0753250980336 9.1673253773303 6.9795219465334 8.957600051234 11.541136232419 8.2881044219326 8.3891834238721 8.8431846774614 7.9944287463991 7.2958755473953 11.399366131229 8.5886523753758 7.330354008548 8.3594961383326 9.7681481052165 7.812272696458 6.5856910591962 8.5307451413481 8.4084630305465 9.1011517192207 8.9197090090326 13.186822211165 8.7110804167361 6.3467722897723 14.111317975962 7.69737247942 12.081691183248 12.592353668851 7.686298795365 8.9157938576944 8.1686193105512 7.7737503934242 11.879374858859 20.481978308436 14.469803444091 8.5548539306037 6.126950744744 8.9922952743382 7.177468153641 9.8941014120166 10.84739998698 6.9663329715261 9.1054163281073 11.933373065839 11.332668934407 11.025766046742 7.1112573218765 8.6642643029006 7.5463245051036 11.809224499018 9.2233259912925 6.7382657899239 12.895151741967 11.494662321278 6.8780809938889 5.1401319978515 8.4472290431478 12.997279690258 10.70639411048 13.277625613272 8.375403703106 5.8196067848001 6.6956910458121 9.4258443415566 11.967051303163 9.9181215901634 8.496036947026 8.9882831838904 10.376888192437 11.025786413282 11.198900634853 10.56682638971 6.2081514463656 6.8266194640417 10.69149222827 10.830861939338 10.554423984439 8.8220197644995 6.5204288516889 7.6100388978436 5.6770267518811 9.4040071837791 5.1930666642364 10.357262219963 8.7258309841855 5.3285951761824 9.3533792802955 9.8572949262047 8.2949193043384 10.651731503959 9.003479006774 5.7415600610544 8.3789926341276 8.9590237925889 6.7191082692184 8.3611009750779 9.7888623168795 8.2904238539042 11.868584024834 7.6166078815992 11.303357600438 8.2288830458865 6.9987908066343 5.8680749606705 5.5614723425365 5.0976547372546 7.6381010186666 5.555559315477 8.5654208226477 9.393202509443 9.0304376794933 11.057249880776 10.247275967947 11.086453543013 9.8535568251514 9.9064226924268 11.711771894566 8.7944696356564 9.7741598969143 9.5662529597793 5.2441816441913 9.343550710069 9.4142724668166 10.595541811992 9.509605316984 9.2846972125028 7.1516996121286 9.5583540770375 8.87732824986 7.1470070236999 6.9586047329847 10.12906576157 10.104329631752 8.4173760240056 11.871077992887 5.3345795340621 8.8784379999754 10.015867132555 7.8826891089465 6.4104108007934 7.7122766918695 6.8432931077856 9.2087683478946 10.337339298563 5.8342728614777 8.3461353484933 9.4869486183096 8.5614844259768 7.2503264983172 9.8551314301757 11.4073703873 9.8120128545115 9.4479474469264 6.9268877745316 11.715779311663 8.0347869591388 8.8085423368832 5.6281902285052 6.3721955241742 8.9842887323466 9.7820476044168 8.8582184096845 9.5379826118482 11.604446994212 11.3559642047 7.2903522326083 9.0130430341949 9.0945338449255 7.5216737874761 7.8159539452645 8.8433227722183 14.22822504639 11.146260346832 6.4858732571344 11.738620567469 8.5072754010039 11.029747838238 10.688392531838 9.2280609735522 8.479909044377 7.9565478814738 7.447463320369 9.569198206029 8.5207068671645 11.327604418103 7.8662636407851 10.118072501717 15.383514840935 9.2298711268245 6.2318717560113 9.7110838653135 11.351639172459 10.250416801299 6.0904901474969 7.7375457748958 9.0877455012927 9.0319754103045 8.3902502649811 9.9232628351444 9.2304517706195 9.1568995945204 7.7252756880952 7.8899658714687 9.4248263598119 7.7084641515023 12.241227431663 7.7429973256801 6.7848379264994 9.5710357383491 8.8772310284333 10.574429927659 6.0896335335769 6.2964416311782 8.2170015203927 8.8592623349 12.107202125764 7.0499695018777 6.0245376158589 4.4733873825082 8.562800529305 7.0720473922552 8.5577342142239 9.9437423612709 8.011527013138 9.0817711485119 9.0687468642359 12.406271843178 7.8145759195232 13.207952817162 4.8188329741549 5.3218862467538 8.7134655328065 10.496561922597 11.252818624662 9.9174460428405 10.377849211162 12.723322662017 10.581764899856 6.215560519337 8.262434140433 6.3912273802372 9.8949615801451 5.2991814431305 6.4726435862129 6.012391087004 6.4958193660887 7.9408733570209 5.5303337653328 9.0664860668989 6.8236772708919 5.0547065807322 7.8354876332603 8.6737593381008 9.1527961788872 7.1756498113728 6.1517901442382 5.3014146602027 7.1727605591793 10.393129949549 9.2522326522907 6.91137170808 6.6763821953464 5.8635542000595 7.4530569036748 8.395208780066 7.1346046709144 11.155813974482 10.15948082241 5.8277198145483 5.0923884079436 6.2780448599324 8.7172860347388 7.6339584314299 10.268050170992 16.529339183952 8.4999933863522 9.9779469961925 6.7489283838778 13.505381554785 8.4391228544159 7.4213833022938 5.2154200606766 8.8615523443756 7.3793392270636 8.6711759814199 6.5405002044917 8.9073146404513 8.5534338418413 8.9458784430309 10.650880006533 11.125334197359 9.4658293039812 6.6676848936685 5.5643841560057 13.489357207115 5.7384898128122 9.24980947078 10.346247533159 7.497990911142 12.339664465774 7.6140567754517 7.8601607765019 7.18122247868 8.9009207874103 7.7899581746147 6.2257723821508 7.1548350396808 5.2536560929849 6.5975133582216 6.2047751170284 11.565607580811 9.1050291984712 6.2670250373733 7.0436903576809 6.6239843684945 5.9114446458558 6.716237701875 7.7153882549037 6.9748993638865 7.0914698637884 10.744627970029 9.588057218409 8.2211068124614 9.1276057013671 9.6303449913872 4.9994555511836 7.5462993121409 4.5133781409104 7.2096890061449 4.8728541960688 7.4850669659066 11.316498979316 9.5646235931746 5.1161639354374 8.7170313153652 4.3913358197404 7.3652395160426 6.1116893911436 6.6699229655327 8.2121988191623 11.819379970627 10.057208929206 7.0197986879193 5.463652956141 4.170713592092 6.37976768707 9.7314666923452 8.2053694125134 8.4684333878762 7.9027908153517 9.447762856233 8.4393686386541 7.25442775319 6.1242778551759 4.518360837679 5.8679778449158 6.0410593668594 5.0935864853459 4.8895783680238 5.2056989952849 8.7801024438585 6.6260678681036 4.6040025948021 4.1395648994681 10.434658641446 7.6844268499962 6.5953312820744 6.2974624497667 5.4124625205764 6.186273962974 5.1878248014731 5.2352031195935 10.821969565912 8.2633105825786 6.5363704221395 6.94049742447 10.477531622888 7.3705727983887 7.0874142926714 4.583890513743 8.64674932689 8.897922523837 11.360116649817 5.9554483057297 5.5270973255183 4.686794237535 3.8898200406662 6.1893106510436 7.8408370363782 6.1151016961877 6.3939931235671 5.013429317534 5.9437996848685 7.7180129166925 9.8374006390043 5.1511838146333 8.9284933818432 9.7276849536974 3.931086180998 8.3456853312866 11.47237327845 8.4787214687653 4.9668931088915 7.9208863967685 7.167437560051 5.8513616383695 5.684825922264 4.7055019572326 9.6287160865051 9.6188206153302 4.6983413190512 7.5522978127613 6.3315538501211 5.3611612794829 5.4724470290196 4.3694720600885 9.9520687293753 8.6007437880873 8.2421899607793 6.296418992629 8.8734989095932 7.4454433679079 8.1555015250707 6.2508618168813 8.6083805219066 9.7921782574505 8.6963802317021 4.9290040315515 3.7817484133639 6.8797590548569 5.6553564884326 7.7109388643111 8.8982827217831 5.1104620366114 8.1508420708021 3.7574260679759 5.7088055177655 3.6325270293075 4.2855387682241 7.563821003768 5.0581914188586 5.584738663367 5.6543111018563 7.8858975555383 7.4818389651976 5.9815642356338 7.3949598390525 5.4482250092237 5.8598240332818 5.6786685006876 5.5494756355631 7.5177919374935 5.5399815194768 6.7249902678146 9.4020861948076 5.2031013880311 4.541714679217 6.4621713551111 6.2195345684641 11.642766095415 5.2566903274903 8.4990032473273 6.5286982369659 8.8070120575885 9.2755661536223 5.4303102041033 3.7842251666216 7.6926757415338 6.5148804249228 6.1264583180474 6.2555870718607 11.288373203345 7.226174836695 4.8437144941183 6.7038493110413 10.127541825743 7.7046596324533 7.9132618987602 6.863115768204 7.4091657976298 6.2090475322262 3.9987366371389 5.5408323457131 4.185540530999 7.483832569308 6.4957304029753 5.9549063097367 5.3252290924935 5.9424810075051 6.8071872018878 6.8562977510516 7.1238307717935 5.6455767828786 4.4415507937515 3.7401837112594 4.7425297302249 6.440141848275 8.7270101865217 6.9018131515132 6.0461988348156 6.1987150727928 5.0298341973563 10.096215105122 4.8588072374786 10.881232414483 7.71849262087 3.7694742897612 8.4520790430349 7.8137027918314 6.05122354783 7.8444492768838 6.6333208997653 5.2205165237032 5.3806094147875 4.7654235014137 6.6531242187232 5.9027329868084 4.0354338618419 4.8135565761757 4.0619924721235 5.1908113647179 4.5228574451404 8.3793318033256 4.8173584587632 7.7045265154711 4.5000658901663 4.7385499604075 4.5186994853405 6.7345079267428 4.1296530958931 4.2251726566522 6.2649362267203 4.4224058212209 3.7693058161047 5.3098466403262 8.6292920551437 7.8217220805924 6.7014726026315 4.1734663403834 4.6259294220044 4.4391963798128 7.7120584116578 6.465639674832 7.5767920994111 6.4901954525106 8.9912710084306 8.7241399262819 5.0404560729978 8.6122084907493 5.199820588214 8.445237785706 5.5818547359198 7.8164297343573 8.8817134730982 6.6018958048644 7.8208145488999 7.4007688163658 7.7343552553104 8.3503777099393 8.5517717892307 6.9908266645575 7.8970510884736 3.9801337136252 5.3232664502127 8.3086199581541 4.7214754655117 8.3031509192609 6.3728163711848 5.6260797087251 5.6993966300077 5.6553124181384 4.8317650583263 4.6042780293611 4.6697850473216 4.1381442849746 4.5021886623348 9.5958690937323 7.858950424299 8.8028051011792 9.2869631793029 4.4976765980499 3.6957903266065 4.5603857780111 5.089009011686 5.5122426983105 5.1819573280635 5.3404921356296 4.9559423852824 5.4473753748238 5.7527369279037 5.6397371549365 5.4920128644908 5.6277097933196 6.3801848370682 5.1589275242242 5.0261756537554 7.5713083382091 7.4168078448171 4.3436417636295 3.3488893283759 3.479860910758 4.0616122798842 3.9366430760554 6.1115207988098 5.2233802816716 6.2040935085781 5.9508280425041 16.897230012989 13.591249294338 3.7951954682808 4.2696265768274 6.5141375321754 4.7607402088857 3.440218794806 3.8187092850223 4.846553136546 6.3635105942656 9.57915300651 5.8838457388325 6.9869954496716 4.71289235853 4.9293992392324 9.2319875916913 4.6250582975347 5.5091168071657 8.9351626356141 4.5828707689639 3.9744664949304 6.8347001771746 7.9545655173276 4.7843334982439 4.2457270014642 4.2262566051244 5.844510122534 4.0738210127261 4.6444642147792 3.5806646586197 3.6133133292613 3.9295879941671 7.9672381837698 4.3224427756086 5.1286839003086 4.2997135847879 4.9849785618833 4.0703776524169 4.9108046344959 8.3282170367237 3.5699970987203 5.7953642619229 3.4770800574021 3.8303329927353 4.7287290673319 3.8765220606488 3.7632615674721 3.5984257866988 4.1757765919164 4.012545356183 4.3644086898053 3.728947955269 7.0435128366933 4.7158003532457 3.7199460813673 4.0172139909044 4.5209639759259 4.5027145835758 6.6025472265498 6.9304347562489 5.5555005722756 6.5649487231502 5.8141377428685 6.0763515921473 5.6720555744926 5.4746563187454 5.7044528958174 5.6846975571198 5.1047133976791 5.4782014420502 5.9542989898194 5.5753398630953 5.4237317699178 3.4483545777492 4.2182759372096 5.3630844690936 4.5942882772755 4.217782247931 3.7726389699501 3.9095272056411 3.3571843714744 3.9991920044977 3.756926725137 3.8753248773338 4.4816385144473 10.767392188827 4.1243778160919 4.7215724517471 4.6365242236335 10.045841324823 7.0602659509417 3.7101114341482 3.6626093531346 3.4515717313948 4.2621530471431 4.6082207892271 17.321772894486 3.6540739424673 3.942591582361 4.2025986198215 3.4752811258222 4.6955482532817 5.5974370977648 4.859828412097 4.7709772216448 3.5308784125499 4.5746013957195 3.8694358332546 3.4233039974689 4.1945485547917 3.4744736339345 3.6802380277734 4.2368440787047 4.4841927617115 3.4134866442446 3.625524862118 3.2658577188066 3.4556688073693 3.2603125095295 3.4537514319613 3.5739122386188 3.9972187511256 4.0742598110191 4.9511047750126 5.0410330323208 3.7308842101652 3.5728919303399 3.4610440385084 3.9566512178226 3.5982585655752 3.5626747061499 3.5332633738688 3.5370569439163 3.5067499524903 3.4815813320834 3.3238215825675 4.0601258682752 3.3290337650349 3.5474592737948 4.035067701529 3.8179722478318 3.424025445189 3.3992289094865 3.526203227741 3.6314355923271 3.2530781996319 3.2262139843814 3.4220617169503 3.4690729005412 3.2695845395053 3.502238248222 3.7668787957026 3.5952153474127 3.7021372586768 3.4497035760804 3.9689678118183 3.4227489529003 3.5856199785324 3.2487619843642 3.3414956442261 3.4221271546607 3.383358868642 3.4631873758951 3.3813435428646 3.6843587138887 4.4170051098551 3.5096895053317 3.83031024237 3.3930438575666 3.4433841174011 3.6398431289046 4.0224626746973 3.6272555600304 3.5638117919263 3.4068519427683 4.1981812675339 3.7589673122052 4.2174159595571 4.0491940984838 3.5859434073263 3.642394151506 3.5847584243626 3.3253088437506 3.6689948748643 3.7278646213695 3.7024431652693 3.7361011828837 3.7086545836765 3.5365386756303 4.2594408741585 3.4285250706402 3.7158510180968 4.2000127185757 4.390031207859 3.896377688924 3.6023448564531 4.0112829672369 3.4274459910235 3.8210488034693 3.4688944908283 3.924728005646 3.7397765084304 3.8972875574405 4.4136114575916 3.7172639383828 4.4222271004355 3.8848247288501 3.8314012208124 3.8373536120287 3.9444122694408 3.9641497861863 3.9040710910879 4.1246419012652 3.5886141961823 3.636775631601 3.5786626545045 3.6222315846229 3.7709368920099 4.4567103892369 4.1258382047389 4.0457270846788 3.6194499392859 3.8770223541736 4.0755782503862 4.0229830582206 4.28392354887 4.0683035330948 3.7695863741286 3.7692122832466 3.6959945694145 3.8635722969551 4.2465379404242 3.5617022021897 3.8197463904495 3.8776515373906 3.7479554933727 3.9147057954056 3.7899458485205 4.1046737140761 4.1720177493448 4.1850014536861 4.029920753352 4.2690978652123 4.4383115431216 4.310127869828 4.3103329270405 4.2086533979443 4.3786583764547 4.453028320735 4.3517281390753 4.2800902708411 3.9334215455235 3.6417247800891 4.2358535321432 4.0900766204394 3.9253637940206 4.0341347912846 4.1508192408101 4.2582820010314 3.9964910179561 4.1130488850205 4.3131690584322 4.288189367939 4.2780531363653 4.3448220138294 4.1485977022558 4.3446852930303 4.3341504995193 
SCALARS 200.00_1.16 double 1
LOOKUP_TABLE default