# vtk DataFile Version 3.0
d-2__ created by libgimli-v1.1.0
ASCII
DATASET UNSTRUCTURED_GRID
POINTS 570 double
14.5	0	0
14.25	0	0
14.386963504964	-0.201738469428	0
22.399299936458	-0.310870122736	0
22.129824335287	-0.229914148082	0
22.126320781198	-0.518791771445	0
8.472303742627	-0.591754876635	0
8.780507935475	-0.76092407121	0
8.82173151259	-0.349253271447	0
18.663262297679	-0.667179415955	0
18.934786529245	-0.453308328646	0
18.636898038907	-0.29588182328	0
4.016904362632	-0.85330676142	0
4.076038737616	-0.331410355179	0
3.713721571226	-0.470767763626	0
1.89953779852	-0.269343012166	0
1.633800503821	-0.203067612233	0
1.644492760828	-0.441295523531	0
4.368408037607	-0.250833874131	0
4.337474161742	-0.544420985055	0
4.67745607622	-0.378433532554	0
1.406172533733	-0.772361039307	0
1.913288206557	-1.218576310882	0
1.90687689783	-0.651895683444	0
2.5	0	0
2.25	0	0
2.347047126858	-0.185539804102	0
1.374000926997	-0.300418771701	0
1.25	0	0
1.114902662369	-0.201591505098	0
1.067401015567	-0.470108640981	0
5.75	0	0
5.699780065382	-0.324747799653	0
5.924584257371	-0.172748359932	0
0.883560935405	-0.231136840652	0
1	0	0
9	0	0
9.117836368049	-0.253904480787	0
2.625577516194	-0.346770599322	0
17.859079774019	-0.943547525024	0
17.535029634209	-1.703182852412	0
18.338018094476	-1.366069799339	0
19.932263871771	-0.826489183604	0
19.881635677668	-0.346204516721	0
19.622287080959	-0.573770479943	0
1.5	0	0
1.75	0	0
23.25	0	0
23	0	0
23.109690227386	-0.220340974338	0
2.75	0	0
2.142562771237	-0.172460438312	0
2	0	0
23.332392704446	-0.202507275941	0
23.5	0	0
19	0	0
18.75	0	0
18.888143078348	-0.195773419804	0
2.90152418742	-0.185685383897	0
7.612175045312	-0.180627982114	0
7.527150943175	-0.401430797998	0
7.881917737402	-0.30462800112	0
25.630635194756	-0.512020961038	0
25.243766894324	-0.80097755811	0
25.758031115142	-0.952821630144	0
3	0	0
28.84859809239	-0.201276387394	0
29	0	0
28.75	0	0
4	0	0
3.835807353334	-0.199536243303	0
3.106904732949	-0.178783649348	0
29.25	0	0
29.092446172194	-0.305987136665	0
13.5	0	0
13.667851890428	-0.185102765244	0
13.75	0	0
3.75	0	0
14.407363653886	-0.441423674912	0
14.125469935998	-0.279652141152	0
4.25	0	0
5.061980176718	-0.407989246181	0
5.335512032876	-0.269401530321	0
5.113979852892	-0.173834924157	0
11.882046000841	-0.812345557852	0
12.478640631525	-1.146569360669	0
12.244190771573	-0.565936619511	0
3.633270844505	-0.195395238442	0
14	0	0
18.378272976509	-0.514977451159	0
5.5	0	0
9.619519097921	-1.16461851757	0
10.030576753886	-1.587265312651	0
9.961661342999	-1.070235523667	0
5.25	0	0
5	0	0
13.157975569138	-0.830425793913	0
13.83833027638	-1.238601004239	0
13.671302359608	-0.710707966059	0
11.325917093147	-0.8366783502	0
11.612143285947	-0.506264798476	0
6	0	0
7	0	0
6.83842404292	-0.188923754932	0
7.11236984822	-0.391746146843	0
6.631875629497	-0.169178192832	0
6.75	0	0
3.21002197083	-0.595267231049	0
3.445510026908	-0.608065324465	0
3.362318141622	-0.306501255187	0
6.120159502895	-0.164221934939	0
4.538525595924	-0.906226152762	0
13.233775457127	-1.737244787017	0
4.5	0	0
16.138065841822	-0.472802517973	0
16.126746690205	-0.221608117926	0
15.859319180798	-0.326402762318	0
26.080401003391	-0.227842452866	0
26.25	0	0
26	0	0
3.019224421113	-0.401469974918	0
8.234901607028	-0.35771789179	0
8.518285578354	-0.242327591839	0
8.328777073389	-0.153008859619	0
7.25	0	0
7.400656881666	-0.195280611572	0
7.5	0	0
5.385509485898	-0.709154879541	0
5.948697127931	-0.745234910621	0
8.75	0	0
8.5	0	0
8.25	0	0
2.214249105773	-0.404278959534	0
2.896561357202	-0.792481120253	0
9.25	0	0
4.920911116561	-0.192028847294	0
9.651670336652	-0.200847798694	0
9.849824537955	-0.19917205686	0
9.75	0	0
10.095049354068	-0.315754204277	0
10	0	0
3.25	0	0
6.738406513564	-0.710129601907	0
7.121614580011	-0.943026074581	0
11.345829942703	-0.314788260019	0
11.25	0	0
11.104427225455	-0.188863495516	0
6.052412255932	-0.372556729023	0
6.373371846535	-0.274163514827	0
10.25	0	0
10.380281579003	-0.241092027437	0
10.5	0	0
10.75	0	0
10.909079077441	-0.189427130481	0
11	0	0
6.25	0	0
6.5	0	0
4.75	0	0
3.5	0	0
10.672815698565	-0.318467932684	0
10.772487906066	-0.787092734739	0
11.020900486567	-0.439266778492	0
8	0	0
7.75	0	0
11.5	0	0
11.619450354737	-0.231443672836	0
11.75	0	0
8.139317726831	-0.163309591658	0
12.25	0	0
12.158949464947	-0.235415698299	0
12.412455385193	-0.275030800337	0
12.929165084344	-0.221336108042	0
12.686337592177	-0.258437422252	0
12.900449535554	-0.462768612232	0
12.5	0	0
9.405755833308	-0.325979504745	0
9.111697192308	-0.594170467817	0
9.457257345083	-0.753685223931	0
18.101369157139	-0.618560521812	0
18.336839281097	-0.861122419318	0
10.385948631267	-0.570640149046	0
9.5	0	0
13.411260455969	-0.342646276848	0
12.643108055516	-0.590179775368	0
13.137744715761	-0.195204172124	0
13	0	0
21.25	0	0
21.358341816502	-0.326561417551	0
21.5	0	0
13.816492716597	-0.40394453634	0
20.25	0	0
20.423452336785	-0.313445603959	0
20.5	0	0
17.789350393153	-0.390447709085	0
17.987794057246	-0.401472255242	0
17.881276545163	-0.206424156589	0
19.564465692234	-0.270867872644	0
19.290725118801	-0.49926248604	0
16.392319441256	-0.29915360323	0
19.443730892406	-0.923508713428	0
20.457987075478	-0.803203365193	0
20.167450719332	-0.505159975143	0
0.103762538371	-0.253013629949	0
0.267057015134	-0.483604909932	0
0.374713194419	-0.2320817565	0
13.25	0	0
17.415572543912	-0.230682214253	0
17.5	0	0
17.25	0	0
18.108153655084	-0.208141099276	0
18.25	0	0
18	0	0
15.75	0	0
15.544586046819	-0.246453491997	0
15.122708481244	-0.193620038745	0
15.25	0	0
15	0	0
19.75	0	0
24.149237782749	-0.319013340846	0
23.842766599446	-0.577371105011	0
24.183995039967	-0.73159476451	0
13.871646321742	-0.17394291424	0
23.862588150518	-0.245417872715	0
16.84024277193	-0.203626765466	0
16.704049384397	-0.435508179396	0
17.112673188265	-0.38804641709	0
24.75	0	0
24.832880292394	-0.290571430318	0
25	0	0
16.40158555625	-0.755912194683	0
16.850299990829	-0.757941865332	0
17.75	0	0
23.567455674596	-0.325197491724	0
16.25	0	0
16	0	0
22.645812614293	-0.197864648876	0
22.75	0	0
22.5	0	0
16.75	0	0
17	0	0
24	0	0
26.914424714815	-0.337869958787	0
26.621963281699	-0.624626679172	0
26.977877660759	-0.778408201088	0
26.622424322919	-0.264588309935	0
19.34462271879	-0.199329831305	0
19.25	0	0
19.118057075065	-0.225686869553	0
19.5	0	0
26.75	0	0
27	0	0
27.5	0	0
27.604422363523	-0.298869962794	0
27.75	0	0
17.650384190064	-0.227839036584	0
18.343198956448	-0.236734208617	0
18.5	0	0
24.25	0	0
20.143897114391	-0.233773711865	0
25.5	0	0
25.25	0	0
25.344389320279	-0.31693710653	0
21.059546193318	-0.24845941382	0
20	0	0
25.842927934822	-0.248287716678	0
25.75	0	0
25.613904645132	-0.216025146631	0
21	0	0
11.763551406169	-1.481607093928	0
30.981104050195	-0.5526690913	0
30.873880294509	-0.217692518774	0
30.706626759758	-0.34945139905	0
20.75	0	0
20.85240828135	-0.178025243856	0
23.75	0	0
20.66289882074	-0.189089155251	0
30.204950808504	-0.791758966623	0
30.715535843381	-1.149995259266	0
30.543724897762	-0.572259098027	0
30	0	0
30.180216671806	-0.343473673313	0
30.25	0	0
23.229584388362	-0.458653998547	0
29.5	0	0
29.623391954444	-0.322069028408	0
29.75	0	0
21.618913855927	-0.233585823579	0
21.75	0	0
29.348490380579	-0.521100538161	0
29.36294710412	-0.230601226356	0
22	0	0
22.25	0	0
28.25	0	0
28	0	0
28.129259193923	-0.314252106503	0
28.44374413871	-0.484576386004	0
28.100199615755	-0.812038297775	0
28.649230646972	-0.871769248311	0
28.618403654115	-0.227691192115	0
28.5	0	0
28.387848605749	-0.205892081491	0
29.054768525933	-0.708603081552	0
29.344906532636	-0.846887322836	0
26.327430876245	-0.35930637997	0
10.349120516034	-1.04150119828	0
10.894920134778	-1.514321070539	0
24.59640839418	-0.191760546865	0
12.75	0	0
24.5	0	0
13.102881121377	-0.411296235356	0
25.099388239946	-0.214879887129	0
25.97986022697	-0.52841375324	0
24.398993403151	-0.196312410538	0
17.860840746535	-0.577367743328	0
17.566481510048	-0.529340016102	0
26.5	0	0
16.637148248735	-0.188015807345	0
18.183918302467	-0.396443618316	0
27.159348252167	-0.205297590358	0
27.357530053515	-0.198815038154	0
27.25	0	0
15.060354649709	-1.112587998155	0
15.51532665618	-1.043792149387	0
15.178150912169	-0.713100616689	0
10.051363365948	-0.719159376333	0
14.661248691948	-0.27865166374	0
14.75	0	0
27.868836823455	-0.217301839861	0
31	0	0
30.75	0	0
-0.020273477909	-1.415389842481	0
1.054972770973	-1.487485199502	0
0.512583677021	-1.0438154777	0
0.75	0	0
2.361419414365	-0.794513604096	0
29.890297721653	-0.2433406165	0
30.473599299501	-0.238575611274	0
30.5	0	0
30.660802173874	-0.161931182737	0
28.783812899585	-0.467926883932	0
4.937022539393	-0.72440615077	0
6.696914540879	-0.380672503721	0
7.434272221796	-0.695675918868	0
15.339606453815	-0.166204802571	0
15.281953315711	-0.388999642276	0
11.893544445085	-0.335972898148	0
12	0	0
9.753796445798	-0.478866225926	0
7.720012958977	-0.638314519759	0
21.871398197179	-0.313006985103	0
21.615176662754	-0.521922347305	0
21.856785525528	-0.665128848631	0
20.792152536902	-0.448319093295	0
21.109577821412	-0.527879642114	0
21.360297691811	-0.734200004244	0
15.547854961707	-0.580173571081	0
24.496861814148	-0.467031445896	0
25.067351422649	-0.463427753535	0
24.81263825963	-0.684738154192	0
22.865620821195	-0.218348593093	0
23.443705587002	-0.773171720633	0
27.277617447467	-0.489224417775	0
27.863714790534	-0.471681393437	0
26.239117668995	-0.863279739365	0
29.896797054636	-0.547765129844	0
29.612773839625	-0.699757135752	0
29.867172666547	-0.87444432816	0
29.610354212963	-1.521444655905	0
29.59548165142	-1.071765512911	0
29.115129171034	-1.220660174798	0
31.345359428525	-0.458952144926	0
31.144859415042	-0.241304201582	0
15.919565295974	-0.746550096707	0
16.063006820294	-1.289595303187	0
16.5	0	0
14.900855313538	-0.178071167744	0
14.161016743654	-0.72559708689	0
19.011498044983	-0.834202892304	0
16.760433281999	-1.263698818643	0
17.280361389946	-0.931704507314	0
-0.627742252535	-0.296285438777	0
-1	0	0
-1	-0.5	0
0.625738545692	-0.228405936136	0
0.5	0	0
3.313957665883	-0.865581185485	0
3.619156095452	-0.800599314657	0
[...]
CELL_DATA 986
SCALARS 160.00_0.23 double 1
LOOKUP_TABLE default
7.9338141636652 8.523582534331 8.0828739930853 6.4252336359371 5.7402922741012 8.4767376331602 7.5397923578506 5.6592496256375 9.4395580904275 8.3059681582617 7.5890275692081 7.6896385553489 7.7200641198567 10.160208762034 9.4693151403368 8.3005358321287 4.3324306789797 7.7169987489371 9.1239301850611 9.61471871635 9.4297511110822 9.546111319184 8.6371563615787 8.8585734027448 8.4625905310049 8.4971581839548 8.8975826177498 6.1383507929403 8.2516042742738 8.2954796494609 7.0399509437165 7.9119648853298 8.4946318782757 8.6406383544273 6.5768784529792 8.6082330085332 8.5996425385204 7.7068245944194 5.4003783700731 6.3997674255625 9.6243682784715 6.0687896217682 8.154241463533 4.5789823350425 7.3453349636737 7.2969291213024 6.1159614877684 6.7145300280773 7.3271002530321 8.7665680715752 7.4009043164532 7.0314823860508 5.5779027209809 7.927743573991 6.4051941388414 8.1890672129012 4.4497810864119 9.6667876836107 8.7578466769304 7.1550032474418 8.4427667212581 7.5550195885754 10.410091314095 9.6797157051167 10.52763865726 9.5416071588573 6.6835110686381 6.1252906016836 10.918428707025 7.0254810270974 11.639491488298 9.7989965525221 8.2720531724639 9.4765337738258 9.214986656224 6.5491957421218 10.505932888715 8.1197362439829 9.639290279149 9.7964891644969 7.7891022850029 5.4724936351829 8.4312583702196 7.2824852112959 9.6418308263808 9.5925053052778 7.0891022549093 9.1903980768982 9.0036111641584 10.868276019631 7.8920899811894 9.9733766862593 7.3149754317414 8.3634784052019 8.2283607280765 10.064827900706 9.6960189288283 9.3683536970865 9.6655990182658 8.29408095654 8.8799079044389 8.80783160328 8.0918644914207 9.1052690331707 6.3961475537807 5.7865078227793 8.8375311637363 7.9721773203993 7.708276232071 8.6904868947837 7.1643401371358 9.1861520339645 8.5126826179571 7.7198305055442 8.4882087206269 10.221484775858 8.5911872292762 8.672398117913 8.2429211909392 8.9626924191464 6.9101212076828 9.4881274627571 7.9034032958573 6.5290297918346 7.7658433883832 8.2625461266665 6.8895905776669 6.5936871572999 9.2234791410334 10.349978702135 8.6901811799695 8.9336895523831 9.3584622542537 9.0134511558591 6.0135533761598 8.2047246217334 7.0056658590975 9.5065783063697 9.4433959967371 7.2187699188754 8.2306855561926 7.3194728637185 9.4002248801701 8.624533918107 13.206860839346 10.783460174033 7.7882235426838 5.7029000896797 7.4527158826235 6.5802997644459 9.7234971820737 10.397498769209 7.0304694824624 9.4369420205836 8.5768163448141 11.473317301928 9.1906987813142 7.0281403107269 7.0182958027846 7.1741615985382 10.214038659107 8.1712058281705 7.5476816453668 10.697697536655 8.7789238309803 7.9527350935708 5.256562447928 7.2079061550533 9.6955719675231 9.5319252922429 10.205247565163 8.9231793140961 5.4171077268099 6.9660031808019 8.4792651666093 8.7470621360875 9.2193661449076 8.2615882556771 7.4779747932528 8.059946802319 9.1720125189246 8.2255900037069 8.7469606468304 6.5035154466812 6.5201573983009 9.6059433927834 8.7248747780112 9.2377917651324 7.5845358013283 6.2575132914026 6.8017659699785 5.565880210094 8.6915384659346 5.5897917406233 8.4354859770603 8.9100425003921 5.2867226028159 10.262881009258 8.1922021111207 8.1047301891266 8.7303539029694 7.9816961396525 7.9475534838599 7.6595185778789 8.8205470171124 7.139718119733 8.0116709312272 8.0711130781919 7.7422098217811 8.5575510784528 7.7085109723895 9.441007399093 7.686035175158 7.2440142450382 7.1274702013513 7.2022318608151 4.7918097890247 7.5093967465537 5.5232325053552 7.651718534753 9.3231327203181 7.9224475411791 8.7509059053613 10.656560522194 8.8050433781008 9.4516837954482 8.4269423033003 9.5601473907937 7.7996584602895 9.1849897272777 8.6139534309662 4.8348296994527 7.7765323277936 8.0103827692303 7.2172959883257 8.650110099665 8.2670930832617 6.230457822622 7.9197086362498 8.0054066692932 6.958464950236 6.522463901455 9.619881617934 7.3845227462478 7.8862130231579 8.7551066347238 6.36233339652 8.0884354320285 7.4309030954786 7.2929335793226 6.3487506776195 7.2233609775556 5.8710274836693 8.2677897611796 10.770637711846 6.296602107655 8.6905893100856 8.8194980323909 9.1509220520938 6.666703842832 7.5278151018689 7.4336398051882 8.617180875023 8.0198214228654 6.5885235136348 10.819199992883 7.2836901025143 8.7066066531463 7.1483672736453 6.7032247154821 7.625944042179 9.8807519043137 7.6489181302292 7.6209413039318 9.4201290711529 10.035708102445 7.0021937984053 7.8387914500178 8.7123977463531 7.9831558496345 7.441225517256 8.7448189422574 9.1468800201381 9.050902435613 6.4973278031088 9.0937222862449 8.6642451273548 9.4812041428928 9.1893534197066 8.5551721463268 8.1734824143669 7.560815119359 7.0262846331521 8.9814120887525 7.9733997542896 10.71347845697 7.5012041871946 9.4235002622142 10.480653667968 8.3302227990262 6.2295502992343 8.7961575288666 10.102407115258 9.2213483222717 5.8185222843128 7.2602555021588 7.7080638518629 9.9158344329815 7.5130866339518 8.4971195682623 8.0437625875405 8.0847368568241 7.2775328204008 7.3472735473483 8.0395633420397 7.1050141929955 8.508423933453 6.8206628503742 6.8527633894291 8.429810138723 7.9084878786226 8.9048001541558 7.2716917776295 6.8494260355792 7.5446702036705 8.0920006704522 9.2233960438999 6.4482207090864 5.7142162395765 4.5459692401816 6.9888758497861 6.4331785488433 7.5591088587329 7.989264099838 7.0390215794278 8.1087794009892 7.3929686678657 8.5411852163466 7.3489964671721 8.5268317290896 4.8224515008871 5.1825147108606 10.475076411871 8.5556031750832 9.2516667580701 8.6683458536668 9.3587858705309 10.546508323677 7.9254239787684 6.5211138923586 8.2181086925569 6.0683925582716 7.5503897008582 5.394753441511 6.4257395594561 5.814206648169 5.6973107964378 6.9522397926584 6.3927296888571 7.2075407527249 6.6182316595578 4.8550974605612 6.978224171748 7.4558994720738 8.2753793875975 6.1551274936498 5.5585118005022 4.8907059390359 7.1310931311357 9.0575011006386 9.2266941764993 6.8905223563025 6.0039431558878 5.3553613657397 6.5011077030602 7.5042023856828 6.2986868080278 9.975778669161 9.8576352192643 5.7595771752379 4.9865101083391 6.6830815554694 8.2315259446746 8.0214407605951 9.7883978974658 9.7403566059438 7.4674154064447 8.7350902113208 6.5996305007903 9.2926316742764 7.973263661552 7.5075619336526 5.5395069102513 8.5772386438757 7.3747625709618 8.0052709886604 6.3460524186323 8.731710224743 7.801018448528 8.1788472430058 9.1948719764975 9.7771089749156 8.611422264723 6.9095676801088 5.4728522233641 9.8730470970915 5.5698112925076 9.8492805950924 9.2092324965942 7.1468542816382 10.286135798162 7.9941295907871 7.6538483866427 6.739716145794 7.9392304357432 7.0576548458664 6.0354549484676 6.3596174797022 5.1477145729958 6.4017277931442 5.8019488347659 8.553930496178 8.2664025128857 6.232457047165 6.7711569411421 7.0662737044109 5.7436154893263 6.0662133704664 7.0972145779983 6.4939039574197 7.0999993985636 8.9580198890129 8.3478113678114 7.5158750863844 6.6238305680885 7.716235778609 4.9053865122055 6.784147953567 4.8860738072899 6.7100020829326 5.0997245059295 6.5628868517868 8.3977970844794 8.1974048303538 5.139270593453 7.2247882124739 4.2458413031255 8.8118329573427 6.5741901112466 7.1843710843271 9.8211590220751 9.1113125405803 8.597634441935 6.0571565889562 5.3515272887428 4.0196469412504 6.7248478580645 9.0675045816227 7.3803555077277 7.4121061718526 6.8547231606011 7.1242048074526 7.3496498111176 6.7230344377756 6.4599142024396 4.4148996858708 5.5428630644523 6.1515274257907 4.9910662353144 4.5066117965766 5.0959456213872 7.9011679527341 6.1771860035925 4.442662080702 4.0403340249273 8.6124530954966 7.320140633206 6.4954036109764 5.8585885601517 4.9382819856902 5.7002091045683 4.8524356977666 5.1502251983379 9.8727922266473 8.0679464383544 6.5489600053486 7.1506005485777 8.5564633547364 6.9674750070117 7.4808523116468 4.2889884708638 8.0229450791109 8.642000922284 8.9819914351148 6.4445997869667 5.5004913179009 4.5745073025322 3.6990898039303 5.9543450114004 7.4336368967688 6.1061593998221 6.1649775190127 4.879982263221 5.764728832643 7.4547431292156 9.1264015199114 5.0841542499064 7.8704155981214 8.9990485895167 3.8909980588305 7.5549064106617 11.526437032074 9.4382190864446 4.8810221584976 7.331379129201 6.8171464976842 5.7035359419371 5.2839213051894 4.6426421361525 8.661874588034 8.5632131525946 4.601524253516 7.3874965892637 6.5423774373818 5.3331037974049 5.0503540743177 4.3749262531878 8.3583193350156 7.6563880707078 7.1008599860073 5.9783974076299 6.7101224469153 6.652466938237 7.2927774722801 5.8968714179598 6.6346063322139 8.4382954861221 8.030421662844 4.8343769966385 3.5415538650036 7.0474720881894 5.337310431717 7.4939222199535 7.9407203764474 5.005888745363 8.0093403250557 3.6733248166411 5.1569672045249 3.4574980170778 4.1982476448598 8.0291354202912 4.95107962457 7.021786397334 5.0209912671451 7.0444891748025 6.7164779724653 5.5480336880732 6.829761760568 4.7933316517906 5.3554276949444 5.5619143013047 5.1496176600193 6.9561195059289 5.2850226623405 6.5550954973758 9.0295285931193 4.9179234116544 4.4223702404354 6.0234384847103 5.610930508774 9.2661602200398 5.3188090343182 7.4835994702764 6.365064754399 8.4617802547162 7.6392547882438 4.9237768676512 3.7086553430901 7.2361833230254 6.3028398841944 5.9536886212206 6.0104884723203 9.1448746103739 7.0573552303153 4.8322258627374 7.2225618126861 8.5484861160167 7.3574693072639 7.3231445155496 6.5128453448848 7.2895857063346 6.2877226039692 3.8794075078876 6.5546039891079 3.9660618674449 7.2342451588891 6.5096545047334 6.7887543727509 5.3966257114869 6.1621635149489 6.6161358327614 6.3509921040406 6.2823992470714 5.1104797113485 4.2040014164473 3.6013585198776 4.5017788110001 6.038801599139 8.1646716027853 6.8314695400395 6.0352487964603 5.5581843187071 4.6359839190715 9.1692396069772 4.8102605179926 9.0113608804513 7.073471334693 3.6357977966968 7.1400457973553 8.2871954870328 6.3402767531878 7.5632578964959 6.6025110431477 5.1432172445539 5.2762946239589 4.8567470778193 6.6940210800903 6.5584326115168 3.6607470582254 4.3847788806218 3.8382334884898 4.7721744461429 4.2295979682711 7.9382967904231 5.0029702195923 7.9307998765742 4.3547840434427 4.5895908747396 4.7105195382202 6.5868926684958 4.1092366108232 3.9867492272667 5.6648772861843 4.5712427978907 3.5553493608435 5.282707159736 8.5162757509109 7.6366315910643 6.2344847194849 4.0986071225169 4.4431231390355 4.306533868514 6.6827604682123 6.1084758815074 6.4095288144512 5.8006906606232 7.613275560753 6.9508465343167 4.8244962498244 7.1762144685545 5.0324587012541 6.9738828181187 5.0738715298332 6.6053737518943 7.2822911960568 5.8332136919151 6.7326163156312 6.3920255445482 6.7188182498032 7.1035847388504 7.306230432532 6.1370791634028 6.8385295862234 3.9352617613629 5.1979512018262 6.919548280736 4.1029917780009 8.294126764393 6.2532602858849 5.4721114697793 5.564667980048 5.6243662242996 4.69254766397 4.5476629900636 4.4143878335676 4.5183728537467 4.5022583695146 8.2844736486239 8.3299280449299 8.7001590510711 9.6358425681853 4.2770593627469 3.5484844814531 4.6869046951883 5.0190579023657 5.2323407196479 5.001164809349 4.9882713199001 4.7146595182435 5.6722533807703 5.5167922885684 5.5002496431183 5.3327245370561 5.6654586655235 5.6120650299695 5.1775667622245 4.6926142641867 6.5907504578466 6.4656892367874 4.1498436575555 3.4056191455997 3.3239517051128 3.9783266581201 3.8221443470629 5.8987427230438 5.1202083489914 6.1213005535212 5.8024923895416 11.028981777739 10.089653134758 3.6994177930719 4.1740954493976 7.0110818533583 5.1846372159558 3.5568756359272 3.720408510109 4.6252212835509 6.6344031759975 7.9165074366445 5.6743174008015 6.8757748245673 4.7009000234258 4.8305339985788 7.9958684561276 4.5883525261999 6.2069950058778 8.9665922512672 4.3479153941479 3.912168572938 6.6091307734269 6.8660774374123 4.6392629012412 4.0914219090177 4.0007697672261 5.6404683259855 3.833677124372 4.4187389640656 3.4667969112778 3.3523833014165 3.8217621801488 8.2392753297441 4.2730633485962 5.1708520713075 4.190225514242 4.8677019949586 3.9728186681497 4.8621937595774 7.1574421093467 3.4504398336998 5.6429385440404 3.3066028771433 3.6591344079482 4.7586267355182 3.8877015589577 3.6728294208825 3.6796103406685 4.0693836129955 3.8172157730154 4.2010962055651 3.6207683309359 6.2653175081027 4.6627027246627 3.5768558923753 3.8301428452273 4.3844489055543 4.2062988725005 6.027483561433 6.0624136432028 6.6808034683074 6.3249986522455 5.5932277087563 6.0174124341237 5.135833539602 5.5447968090287 6.3388041424392 6.0107121581204 4.8874192041128 5.2910503024576 5.2279208069556 6.4237663526068 5.7981182936251 3.3582627337244 4.2038387121217 4.890918294373 4.0640889704213 3.8950892736509 3.7023057993966 3.8482979375029 3.5542276741583 4.1492250210429 3.592905335874 4.1305517947305 4.3436962026783 9.3178148885818 3.9841740435318 4.7241165939745 4.5649049470884 8.2960034433937 6.5743629846858 3.5657945683087 3.5289591857749 3.3372756656831 4.086958652704 4.5805547065388 11.464536423953 3.5757120802183 3.8029447774715 4.1285054912637 3.3128176143572 4.2299325158407 4.8254055067555 4.4349982748333 4.2842875946073 3.7655054683843 4.3823555623346 3.947014207791 3.5560510337128 4.2268628497715 3.3504369707408 3.5493322845617 4.1404768154742 4.0434082846063 3.2922988207768 3.5012103040616 3.2631927273306 3.3852458508802 3.3227678489388 3.2822933545866 3.4237638600932 3.9659744102621 3.9156097444762 4.8205925764606 5.0536236143039 3.5725087600345 3.3886856886079 3.290738244143 4.0925756610432 3.3950776117816 3.3700560316665 3.3832331249413 3.3779663742428 3.4046240679509 3.6831402770705 3.4399657551406 4.0739099269928 3.2079285784596 3.4154387857616 3.8235597602273 3.7123645498006 3.2869496407826 3.2844867426472 3.3753816236956 3.4186661484909 3.2973730723682 3.3058105686513 3.3179231532284 3.3856536147373 3.3990672409013 3.3169133299525 3.6873961688877 3.3796043925219 3.4692434277489 3.2907532983112 4.1352708521018 3.2728821356568 3.4113205825465 3.252390993704 3.271896632154 3.3337640311882 3.300328200439 3.4636588632203 3.4643564361769 3.3804025515505 3.8832603486442 3.3131209454807 3.6337855393249 3.2610840698039 3.2888421639847 3.433311376027 4.1541391809097 3.4955958655717 3.4037980338488 3.2514278655977 4.1186368960512 3.5422421378716 4.2461915529362 3.6304472683182 3.372684645936 3.4480325315333 3.3957211549226 3.2987285249891 3.7438005653998 3.6554153605376 3.5840394218416 3.647497792366 3.7349447577413 3.6187750732466 3.8482417888929 3.2900985576401 3.5606725593391 4.4602385632498 4.0486840484158 3.833147678246 3.4570751022365 4.0090026168291 3.2895014376229 3.741301658678 3.5143052579366 4.0792678093281 3.5614585478177 3.7738251575506 4.2086365275571 3.6068196273612 4.1451543193941 3.7813590545304 3.7758428313176 3.9483515986854 4.0370962553327 4.1410207077227 3.7953021817841 4.1186956933241 3.5263354662788 3.4980707367401 3.4408375536104 3.4814834175141 3.6897494861393 4.0577380089302 4.1687935989486 4.0528828843192 3.7071886094458 4.0136780744968 4.0511428324485 4.2209340434134 4.5502336609189 4.2866058982096 3.6834935091182 3.6054030917074 3.5817670278902 3.815786523963 3.914790203556 3.4201545372244 3.6724035118311 3.9191561083583 3.5921335086696 3.7839622724836 3.588239371246 3.9675542687801 3.990767845631 4.1260799959893 3.9649622078257 4.3525509255215 4.3081996877644 4.1881678581578 4.1412437355041 4.1049154579609 4.2798762057725 4.2856293141095 4.3002111755501 4.2613321753181 3.9396375171701 3.6313890816478 4.4279832708695 4.0540501572812 3.8335174382218 4.0301789467785 4.1754444823951 4.2941065801564 3.9540561039785 4.1223215978029 4.4029701647605 4.3750529113789 4.4164731916278 4.4512725614114 4.1995331788905 4.4782432254221 4.4350203720372 
SCALARS 20.00_0.04 double 1
LOOKUP_TABLE default