# vtk DataFile Version 3.0
d-2__ created by libgimli-v1.1.0
ASCII
DATASET UNSTRUCTURED_GRID
POINTS 570 double
14.5	0	0
14.25	0	0
14.386963504964	-0.201738469428	0
22.399299936458	-0.310870122736	0
22.129824335287	-0.229914148082	0
22.126320781198	-0.518791771445	0
8.472303742627	-0.591754876635	0
8.780507935475	-0.76092407121	0
8.82173151259	-0.349253271447	0
18.663262297679	-0.667179415955	0
18.934786529245	-0.453308328646	0
18.636898038907	-0.29588182328	0
4.016904362632	-0.85330676142	0
4.076038737616	-0.331410355179	0
3.713721571226	-0.470767763626	0
1.89953779852	-0.269343012166	0
1.633800503821	-0.203067612233	0
1.644492760828	-0.441295523531	0
4.368408037607	-0.250833874131	0
4.337474161742	-0.544420985055	0
4.67745607622	-0.378433532554	0
1.406172533733	-0.772361039307	0
1.913288206557	-1.218576310882	0
1.90687689783	-0.651895683444	0
2.5	0	0
2.25	0	0
2.347047126858	-0.185539804102	0
1.374000926997	-0.300418771701	0
1.25	0	0
1.114902662369	-0.201591505098	0
1.067401015567	-0.470108640981	0
5.75	0	0
5.699780065382	-0.324747799653	0
5.924584257371	-0.172748359932	0
0.883560935405	-0.231136840652	0
1	0	0
9	0	0
9.117836368049	-0.253904480787	0
2.625577516194	-0.346770599322	0
17.859079774019	-0.943547525024	0
17.535029634209	-1.703182852412	0
18.338018094476	-1.366069799339	0
19.932263871771	-0.826489183604	0
19.881635677668	-0.346204516721	0
19.622287080959	-0.573770479943	0
1.5	0	0
1.75	0	0
23.25	0	0
23	0	0
23.109690227386	-0.220340974338	0
2.75	0	0
2.142562771237	-0.172460438312	0
2	0	0
23.332392704446	-0.202507275941	0
23.5	0	0
19	0	0
18.75	0	0
18.888143078348	-0.195773419804	0
2.90152418742	-0.185685383897	0
7.612175045312	-0.180627982114	0
7.527150943175	-0.401430797998	0
7.881917737402	-0.30462800112	0
25.630635194756	-0.512020961038	0
25.243766894324	-0.80097755811	0
25.758031115142	-0.952821630144	0
3	0	0
28.84859809239	-0.201276387394	0
29	0	0
28.75	0	0
4	0	0
3.835807353334	-0.199536243303	0
3.106904732949	-0.178783649348	0
29.25	0	0
29.092446172194	-0.305987136665	0
13.5	0	0
13.667851890428	-0.185102765244	0
13.75	0	0
3.75	0	0
14.407363653886	-0.441423674912	0
14.125469935998	-0.279652141152	0
4.25	0	0
5.061980176718	-0.407989246181	0
5.335512032876	-0.269401530321	0
5.113979852892	-0.173834924157	0
11.882046000841	-0.812345557852	0
12.478640631525	-1.146569360669	0
12.244190771573	-0.565936619511	0
3.633270844505	-0.195395238442	0
14	0	0
18.378272976509	-0.514977451159	0
5.5	0	0
9.619519097921	-1.16461851757	0
10.030576753886	-1.587265312651	0
9.961661342999	-1.070235523667	0
5.25	0	0
5	0	0
13.157975569138	-0.830425793913	0
13.83833027638	-1.238601004239	0
13.671302359608	-0.710707966059	0
11.325917093147	-0.8366783502	0
11.612143285947	-0.506264798476	0
6	0	0
7	0	0
6.83842404292	-0.188923754932	0
7.11236984822	-0.391746146843	0
6.631875629497	-0.169178192832	0
6.75	0	0
3.21002197083	-0.595267231049	0
3.445510026908	-0.608065324465	0
3.362318141622	-0.306501255187	0
6.120159502895	-0.164221934939	0
4.538525595924	-0.906226152762	0
13.233775457127	-1.737244787017	0
4.5	0	0
16.138065841822	-0.472802517973	0
16.126746690205	-0.221608117926	0
15.859319180798	-0.326402762318	0
26.080401003391	-0.227842452866	0
26.25	0	0
26	0	0
3.019224421113	-0.401469974918	0
8.234901607028	-0.35771789179	0
8.518285578354	-0.242327591839	0
8.328777073389	-0.153008859619	0
7.25	0	0
7.400656881666	-0.195280611572	0
7.5	0	0
5.385509485898	-0.709154879541	0
5.948697127931	-0.745234910621	0
8.75	0	0
8.5	0	0
8.25	0	0
2.214249105773	-0.404278959534	0
2.896561357202	-0.792481120253	0
9.25	0	0
4.920911116561	-0.192028847294	0
9.651670336652	-0.200847798694	0
9.849824537955	-0.19917205686	0
9.75	0	0
10.095049354068	-0.315754204277	0
10	0	0
3.25	0	0
6.738406513564	-0.710129601907	0
7.121614580011	-0.943026074581	0
11.345829942703	-0.314788260019	0
11.25	0	0
11.104427225455	-0.188863495516	0
6.052412255932	-0.372556729023	0
6.373371846535	-0.274163514827	0
10.25	0	0
10.380281579003	-0.241092027437	0
10.5	0	0
10.75	0	0
10.909079077441	-0.189427130481	0
11	0	0
6.25	0	0
6.5	0	0
4.75	0	0
3.5	0	0
10.672815698565	-0.318467932684	0
10.772487906066	-0.787092734739	0
11.020900486567	-0.439266778492	0
8	0	0
7.75	0	0
11.5	0	0
11.619450354736	-0.231443672836	0
11.75	0	0
8.139317726831	-0.163309591658	0
12.25	0	0
12.158949464947	-0.235415698299	0
12.412455385193	-0.275030800337	0
12.929165084344	-0.221336108042	0
12.686337592177	-0.258437422252	0
12.900449535554	-0.462768612232	0
12.5	0	0
9.405755833308	-0.325979504745	0
9.111697192308	-0.594170467817	0
9.457257345083	-0.753685223931	0
18.101369157139	-0.618560521812	0
18.336839281097	-0.861122419318	0
10.385948631267	-0.570640149046	0
9.5	0	0
13.411260455969	-0.342646276848	0
12.643108055516	-0.590179775368	0
13.137744715761	-0.195204172124	0
13	0	0
21.25	0	0
21.358341816502	-0.326561417551	0
21.5	0	0
13.816492716597	-0.40394453634	0
20.25	0	0
20.423452336785	-0.313445603959	0
20.5	0	0
17.789350393153	-0.390447709085	0
17.987794057246	-0.401472255242	0
17.881276545163	-0.206424156589	0
19.564465692234	-0.270867872644	0
19.290725118801	-0.49926248604	0
16.392319441256	-0.29915360323	0
19.443730892406	-0.923508713428	0
20.457987075478	-0.803203365193	0
20.167450719332	-0.505159975143	0
0.103762538371	-0.253013629949	0
0.267057015134	-0.483604909932	0
0.374713194419	-0.2320817565	0
13.25	0	0
17.415572543912	-0.230682214253	0
17.5	0	0
17.25	0	0
18.108153655084	-0.208141099276	0
18.25	0	0
18	0	0
15.75	0	0
15.544586046819	-0.246453491997	0
15.122708481244	-0.193620038745	0
15.25	0	0
15	0	0
19.75	0	0
24.149237782749	-0.319013340846	0
23.842766599446	-0.577371105011	0
24.183995039967	-0.73159476451	0
13.871646321742	-0.17394291424	0
23.862588150518	-0.245417872715	0
16.84024277193	-0.203626765466	0
16.704049384397	-0.435508179396	0
17.112673188265	-0.38804641709	0
24.75	0	0
24.832880292394	-0.290571430318	0
25	0	0
16.40158555625	-0.755912194683	0
16.850299990829	-0.757941865332	0
17.75	0	0
23.567455674596	-0.325197491724	0
16.25	0	0
16	0	0
22.645812614293	-0.197864648876	0
22.75	0	0
22.5	0	0
16.75	0	0
17	0	0
24	0	0
26.914424714815	-0.337869958787	0
26.621963281699	-0.624626679172	0
26.977877660759	-0.778408201088	0
26.622424322919	-0.264588309935	0
19.34462271879	-0.199329831305	0
19.25	0	0
19.118057075065	-0.225686869553	0
19.5	0	0
26.75	0	0
27	0	0
27.5	0	0
27.604422363523	-0.298869962794	0
27.75	0	0
17.650384190064	-0.227839036584	0
18.343198956448	-0.236734208617	0
18.5	0	0
24.25	0	0
20.143897114391	-0.233773711865	0
25.5	0	0
25.25	0	0
25.344389320279	-0.31693710653	0
21.059546193318	-0.24845941382	0
20	0	0
25.842927934822	-0.248287716678	0
25.75	0	0
25.613904645132	-0.216025146631	0
21	0	0
11.763551406169	-1.481607093928	0
30.981104050195	-0.5526690913	0
30.873880294509	-0.217692518774	0
30.706626759758	-0.34945139905	0
20.75	0	0
20.85240828135	-0.178025243856	0
23.75	0	0
20.66289882074	-0.189089155251	0
30.204950808504	-0.791758966623	0
30.715535843381	-1.149995259266	0
30.543724897762	-0.572259098027	0
30	0	0
30.180216671806	-0.343473673313	0
30.25	0	0
23.229584388362	-0.458653998547	0
29.5	0	0
29.623391954444	-0.322069028408	0
29.75	0	0
21.618913855927	-0.233585823579	0
21.75	0	0
29.348490380579	-0.521100538161	0
29.36294710412	-0.230601226356	0
22	0	0
22.25	0	0
28.25	0	0
28	0	0
28.129259193923	-0.314252106503	0
28.44374413871	-0.484576386004	0
28.100199615755	-0.812038297775	0
28.649230646972	-0.871769248311	0
28.618403654115	-0.227691192115	0
28.5	0	0
28.387848605749	-0.205892081491	0
29.054768525933	-0.708603081552	0
29.344906532636	-0.846887322836	0
26.327430876245	-0.35930637997	0
10.349120516034	-1.04150119828	0
10.894920134778	-1.514321070539	0
24.59640839418	-0.191760546865	0
12.75	0	0
24.5	0	0
13.102881121377	-0.411296235356	0
25.099388239946	-0.214879887129	0
25.97986022697	-0.52841375324	0
24.398993403151	-0.196312410538	0
17.860840746535	-0.577367743328	0
17.566481510048	-0.529340016102	0
26.5	0	0
16.637148248735	-0.188015807345	0
18.183918302467	-0.396443618316	0
27.159348252167	-0.205297590358	0
27.357530053515	-0.198815038154	0
27.25	0	0
15.060354649709	-1.112587998155	0
15.51532665618	-1.043792149387	0
15.178150912169	-0.713100616689	0
10.051363365948	-0.719159376333	0
14.661248691948	-0.27865166374	0
14.75	0	0
27.868836823455	-0.217301839861	0
31	0	0
30.75	0	0
-0.020273477909	-1.415389842481	0
1.054972770973	-1.487485199502	0
0.512583677021	-1.0438154777	0
0.75	0	0
2.361419414365	-0.794513604096	0
29.890297721653	-0.2433406165	0
30.473599299501	-0.238575611274	0
30.5	0	0
30.660802173874	-0.161931182737	0
28.783812899585	-0.467926883932	0
4.937022539393	-0.72440615077	0
6.696914540879	-0.380672503721	0
7.434272221796	-0.695675918868	0
15.339606453815	-0.166204802571	0
15.281953315711	-0.388999642276	0
11.893544445085	-0.335972898148	0
12	0	0
9.753796445798	-0.478866225926	0
7.720012958977	-0.638314519759	0
21.871398197179	-0.313006985103	0
21.615176662754	-0.521922347305	0
21.856785525528	-0.665128848631	0
20.792152536902	-0.448319093295	0
21.109577821412	-0.527879642114	0
21.360297691811	-0.734200004244	0
15.547854961707	-0.580173571081	0
24.496861814148	-0.467031445896	0
25.067351422649	-0.463427753535	0
24.81263825963	-0.684738154192	0
22.865620821195	-0.218348593093	0
23.443705587002	-0.773171720633	0
27.277617447467	-0.489224417775	0
27.863714790534	-0.471681393437	0
26.239117668995	-0.863279739365	0
29.896797054636	-0.547765129844	0
29.612773839625	-0.699757135752	0
29.867172666547	-0.87444432816	0
29.610354212963	-1.521444655905	0
29.59548165142	-1.071765512911	0
29.115129171034	-1.220660174798	0
31.345359428525	-0.458952144926	0
31.144859415042	-0.241304201582	0
15.919565295974	-0.746550096707	0
16.063006820294	-1.289595303187	0
16.5	0	0
14.900855313538	-0.178071167744	0
14.161016743654	-0.72559708689	0
19.011498044983	-0.834202892304	0
16.760433281999	-1.263698818643	0
17.280361389946	-0.931704507314	0
-0.627742252535	-0.296285438777	0
-1	0	0
-1	-0.5	0
0.625738545692	-0.228405936136	0
0.5	0	0
3.313957665883	-0.865581185485	0
3.619156095452	-0.800599314657	0
[...]
CELL_DATA 986
SCALARS 20.00_0.47 double 1
LOOKUP_TABLE default
6.0478916026965 8.7316738388179 8.0096232386191 5.2289471565202 4.3617107738641 8.2683101403149 8.8828960686056 5.3949805157879 9.213515258545 7.2651938556341 7.4894077786371 7.0506323770059 10.705046316263 17.867591584488 11.116778022961 6.3644612511001 4.2864340655031 9.0410426198941 5.4007496781661 6.09064704037 9.6922865161647 9.5828773260496 7.8779641795277 7.7947400469925 47.937318252365 7.521708068297 9.769658476897 4.7073178097245 5.7254922735566 10.844904942885 8.7075767129467 13.882668554271 7.8269256164536 15.508230671172 3.1158148614721 11.897289720858 21.995707811346 9.5453105529268 3.7835943688109 3.2057513725348 6.1360803522577 2.941427147945 11.31977869019 3.7298846366142 16.23497190208 12.382724564308 5.2975339417643 5.4303047161668 5.9603716876969 9.2514125142697 9.6828982426238 3.7323400453839 4.2579740478621 13.059164308485 5.8248278928946 6.4174372330252 3.5920655507488 27.722583681991 8.4816536867177 4.1959358729403 6.5012510596726 8.8646365423344 12.923917918816 7.1146896222314 29.547630505536 27.419765367353 6.5513774599321 6.4982619628296 9.9803527700503 12.048875577409 9.140782421855 18.250250199341 33.028771581998 14.329994783709 10.508303337762 7.0437918496022 23.77953919237 11.086304156321 15.773245275735 21.562986765154 27.35928581944 4.0280631784007 12.545719321048 9.5968403514343 7.2140792712255 15.035874878508 14.987572737575 7.7757752412278 45.799821712641 38.446059279566 6.791983382059 8.7044312916183 23.541731498436 21.99231932572 8.0009334207295 10.763412982783 11.804621429505 11.355157509136 19.765714627593 11.293297203377 24.676917947805 6.1829391705298 6.6007633203883 29.865326091452 3.9594715366484 3.6331713712417 11.190188939561 4.0046758440651 7.651788214105 8.1736157107194 4.9737005420204 13.022928878459 10.2941462647 4.4661838041135 7.9122692764427 8.4222109726233 7.2963820493873 7.180822050276 10.159651445845 8.763592776428 7.4920285709586 11.208550388872 8.0934510685035 5.0839180944052 6.542969271265 16.044143028606 6.7469224882055 6.6214962132235 7.0280915934998 10.173320114126 13.476496287823 7.1280210908545 39.725255775277 6.5022179934306 4.5084301240939 28.07850585056 6.2257276041692 18.00503076072 30.424565858139 5.343826399614 6.2520103484386 6.9097841054253 11.398258981833 23.200624837579 91.188476838743 44.077958327417 7.4482638895008 4.7460549860884 12.707773188609 6.8713450354186 6.6236829351795 9.3533155004364 6.847392664133 4.7610801478695 43.500917345537 16.75753473451 14.366181933412 3.6344784632056 8.2480658282194 8.5785576409391 9.4544517519088 9.2910892238007 4.7546601545641 11.595547063256 15.65159169435 5.0352359395101 4.5558134957132 8.5077260518385 20.544114758498 16.73773415958 23.624565381564 4.9725797252776 3.8369162628541 3.667937556376 9.4691210417582 21.75008455002 13.837006330734 8.031069936968 9.679078950189 13.341319068272 9.4219036080017 8.2262425072808 13.714678548677 5.1275018389513 6.760645121167 9.2959570724082 17.807669216249 9.9558387198961 8.9462839244015 5.5554208395029 7.85710877877 4.5468016180986 9.5468681076941 4.2397315682171 13.165813943664 7.1699925284189 3.4714986401255 16.984761630418 10.653537813894 9.0743698505934 14.68412433125 8.5601701115275 2.5168991990584 5.6924163829108 11.787622416596 6.2420648464895 7.3256943175448 17.019356455605 7.0263877054211 18.756678771927 8.0410644077116 10.162330254232 13.018316479892 5.9598179858782 3.8353308798581 3.1658874242127 3.4437063959393 10.5333338658 4.2433643353566 11.161145966725 8.7031205957543 7.8783140081259 22.157791659224 9.5378436045122 21.497900583202 9.5471200503423 10.697880208739 18.02201096468 8.8313800184869 6.6598060190271 13.63590514044 3.8366342367019 7.9018511307998 8.4256146059627 18.459707812219 8.440153677744 8.2545463714838 6.7758349183766 9.9813818959245 9.5058951680392 4.8335043242448 5.0223327721208 9.756585032887 12.330313542949 11.360304395535 13.816505137826 2.8567661642069 11.732404392424 10.346306571433 5.9081825975822 5.761089958181 5.7504108778278 5.6324302921249 10.171037398139 13.034106637448 4.3837113663729 7.2523403596798 10.822159610673 5.550660277827 5.9417796845949 11.679578273454 21.55308424643 9.7977115381251 9.8205238773209 5.8459869999599 13.717225571984 7.0188501781742 6.0119044610018 3.0132702426231 4.6245030097715 8.2086371743403 9.7644909940961 10.747102706818 15.481061546968 24.94873229511 16.188900919874 3.6328306517053 6.564123904312 8.6873877927635 5.7703636621637 6.1881160351329 8.4083792542876 27.252249714728 12.317250290569 5.1657077779638 14.81139194749 9.2133465155891 16.104687397124 9.0709512748631 9.4401232998639 7.8084946245997 8.0281879480424 5.7807896925762 7.6123603070378 7.7650094086924 21.737340417305 6.4358801021163 13.28568814273 40.889711934445 9.1068309018337 4.1625118083905 10.518732691789 10.644534237613 9.8937403736829 3.2110494099652 6.2531564264192 9.0711813465391 10.08323225995 6.8685312995511 11.191493023185 9.6373918159442 9.0985548588668 3.9713691895426 5.1949421963801 10.735557620779 6.022958543711 27.929030229215 6.6948295729944 6.8233856472782 9.5865642597792 10.210452351245 9.2598846723359 4.3490281227107 4.9481892508715 7.4583264649357 7.1749945634122 19.090461662373 5.8896550385938 4.0828035527438 3.7203083972639 8.6372925842186 5.2415641051379 9.5761202275154 11.254426916129 6.4764942075342 9.9076528514543 9.9568168536227 28.021554119545 7.9233479655108 18.045777046781 4.9342003926293 3.3488140942602 9.9602027019388 20.6594215947 14.459212598774 11.538017554206 9.777472407641 18.082012268083 20.098667179046 2.9354824749291 8.7905941201886 6.0822977643711 10.807878179895 5.595703565725 3.1274334034075 4.3509449434297 5.6289404811484 6.8098472357519 4.2740144611661 13.675435876648 6.632611179081 3.3643463698895 7.9402915566361 7.5504120270644 8.6865073973203 5.8262947975885 4.7941016639053 3.7334899831243 6.1646161547742 12.215863127443 8.4797482421516 5.4443960505111 4.1725584557174 3.7364534302482 5.665056485044 8.6889362093434 5.1850895920594 20.93901883093 10.035819558372 3.4776969779984 3.8430304092754 4.0825753976541 7.3407673935304 5.8111573868594 9.1994378060326 36.893281883154 8.497884577075 10.352608724076 5.3611869518059 17.097470309205 7.4052912205107 6.9263099096547 2.8905644659178 11.539900544718 7.2529080498581 4.2625246570861 3.2732460645136 8.3821900616987 5.1681515037689 8.4743388314834 13.947528320723 13.343333429283 9.3117191343166 4.6182704628095 3.737732367258 25.118749179647 3.6555587200407 10.955878654025 9.4605181257384 5.8628486825507 12.909676236364 6.9805143217013 8.3429597968674 4.9949106453104 8.6525945549346 5.0617806882055 4.0216836143766 5.7845537454127 3.6434280033963 4.688268503053 4.7382896993377 19.767606967451 8.0685962524493 4.9038227398172 6.1029005290134 5.5382722662076 4.2770908648694 5.982976478098 7.4644438632811 5.1455115232557 6.9160881684 13.912039854116 9.6516154625357 8.9191123547933 10.084853196235 12.054226909426 3.5565172796533 6.449773155995 3.9163412851674 4.9965544147943 3.4572977322313 6.293027773699 14.239569032692 10.549206546918 3.3187992658287 10.714728593805 3.6298241433518 6.3073379613286 5.3677272958167 5.6908733649211 10.727221758522 13.661398466181 12.855493252269 5.447262101429 4.2909433606548 3.7466665911627 6.413396316402 10.430555190822 8.5755975254982 8.7592509987792 7.3270013729364 14.323049023928 7.5324487239926 9.8733998430436 5.263225078831 3.3116714236686 4.8549260160959 4.6748681293055 3.4441979004813 3.6971537475082 3.3695029400155 8.4396220828093 5.2082948741527 3.2774122197389 3.5127279766144 12.958226888468 6.403914579327 4.5418453226056 4.3891696856489 3.9258882835998 3.9122173281396 3.8414357720586 3.5076497741084 16.06258122842 7.769058832848 5.0147354241384 5.679755570129 14.337824593528 6.8885912392468 5.941478620309 3.5616473951998 8.9105175219682 7.2969433627196 11.714852645418 4.1623405202534 4.0419432492272 3.7026906920477 3.598154889455 4.7455916517351 4.212694248838 4.4567139903146 5.4172768337553 3.6089264849716 4.1775854585911 6.23347744313 10.065904061622 4.0121171257143 12.335220388785 9.4694022207153 3.7055457119236 8.429084891848 13.065953348013 10.542480314949 3.6869095900367 6.4276568982081 4.4045730136607 3.9527734027268 4.3133076563187 3.6667337083846 9.9327223565817 9.3995003244265 3.4343063961235 6.0709126139053 4.891551121261 3.7841841598626 4.4348835674596 3.2932127891609 10.176748671726 7.297974901111 8.1456533490242 3.9936617546019 9.4531718065706 6.2797461945678 8.3336090250749 4.0547786443823 8.8826264132937 13.33820666984 10.272854158051 3.9560493543654 3.6264348015848 4.5754976187264 4.1707639000311 3.7368123820629 8.1436817276908 3.8851739967515 7.0255142827973 3.5282846352362 3.7582318066987 3.4646934438422 3.5616374913726 6.7082200419911 4.4085656795246 3.5230927631749 4.7312416737991 10.339560879381 7.5495075906171 4.2134136035438 8.0238517985789 4.4665802956899 4.814523008289 3.7506497362939 3.784204158683 6.3311683821615 4.6148662809138 5.3265370725868 10.294839234994 4.5169444031081 4.1608852713471 3.9568990901727 3.8869919185455 19.04713796319 4.4218414796171 6.9934720461929 4.9066945450415 9.62311612174 11.182971844631 3.7385992269039 3.3793778165856 5.93052567269 4.9988661726329 4.3418127755614 4.5416856343597 15.820833756268 5.2861373325584 4.4585668090789 6.8063776293434 11.250149755476 5.6390887251559 6.5468162631613 5.1220468865214 5.2712188478734 4.3650342434855 3.4067813923034 4.0881895260975 3.7659962031295 5.6904589038867 7.3363041404012 4.9021177147756 4.6106776074518 4.7353408401586 8.1402229443925 5.8650830444255 5.7477940403397 4.1155176967707 3.4039089016067 3.5542870231444 4.0354220612744 4.6747501767868 6.363337684313 5.7327508519654 5.1447399263718 4.1202121180967 3.8065915251011 11.041991932765 3.4670065606738 14.708315149751 4.8540085060677 3.7208570618009 9.0295876346164 7.339834190295 4.9385377835543 6.0052915792903 4.5302061734987 3.7599244981311 3.9355707734107 3.3629905534625 6.1789481222239 4.7526250769988 3.5508845368724 3.8639010385655 3.4697725581597 4.151293703589 3.8899184953144 7.4328989431551 2.9332875434663 6.7673577083298 3.6504041702923 4.065135057823 3.9358648325083 5.02767618744 3.6438275313575 3.7355059226654 4.3023419464494 3.1956953854029 3.6268911737412 4.086265293459 8.2729594000439 7.8303610228771 5.1566965668498 3.6806727916832 3.569179486877 3.7120680649326 7.3495559953362 5.1939176827236 6.8060596816547 4.7331896408223 9.3644764749602 8.9908727308387 3.4407252981643 8.7061869271273 3.4639631166849 8.398188578713 4.6753600358782 7.3103013290066 9.2318572228739 5.8614672740363 7.4754753687193 6.837934811589 7.4003395171487 8.2857994230775 8.6229638541501 6.3700177215284 7.6302905013495 3.629256566616 4.3421512725103 9.7069346990166 3.5640694262361 7.6036215705161 4.8908957858615 4.1629290657944 4.3086328738198 3.7128956785686 3.7719899025399 3.6724144953457 3.9088675916879 3.3259324471462 3.5561709681616 11.701917889181 4.6471661559818 10.240163620562 9.4961937296785 3.7222885509648 4.02529018996 3.8524429865531 3.7005458429634 4.1093070728658 3.8795685163146 4.1293683614463 3.9407379966776 4.7037359801753 3.6922093995228 4.2598897924983 3.865732928025 4.6171940129438 4.9870440178605 4.1014979504132 4.2278924128615 7.1671535219776 6.946766336344 4.1062460615815 3.9311875880614 3.8461127901709 3.6961962951051 3.4770530243139 4.3997816099633 3.7274944183759 4.1156013882869 4.9160773850879 26.798608903405 19.626308117677 3.9109345276242 3.9998573325858 5.1978792731368 3.9277130205587 3.3941331001057 3.5234125989001 3.8755275740132 5.886020329832 15.680432368183 4.0932764016315 6.2611738286003 3.2839565012056 3.9520648711017 12.471625877355 4.2024945627593 4.3483390741397 6.9618963813241 3.749346254058 3.6969271671314 6.6127079290603 7.7952772480824 4.0767925888913 3.6282054277008 3.8713107317831 4.5224721511852 4.9016958288172 3.9359466151733 3.7598351800788 3.6766938609048 4.1483839988563 7.0371360761046 3.3385461572624 3.7091895245815 3.7160599584445 3.8177733344199 3.4516755126748 3.4289519525012 7.8382784629608 3.7529358427144 5.1239702981618 3.3152219766423 3.5739079207164 3.708433861316 3.3376781934892 3.6291245491313 3.8169837139383 3.9460298223363 4.1464456967921 4.5418062051537 3.9386594004676 4.906488127683 3.5741556312698 3.6276367980314 3.9987348279907 4.182831282419 3.9957703218148 5.0438135227341 5.208898003775 3.8773242276307 5.6002529273765 4.2199257990307 4.7187463246003 3.8938355181115 4.3036626437726 4.3955274079488 4.4112002705192 4.9504332588275 4.0246951616506 4.0647799384981 4.1603002648506 4.556763360102 3.6658329736125 3.5429933658283 4.2924268180573 3.6040131502967 3.5433499419225 3.6689019431503 3.633770261169 3.6658654684781 3.6885973732113 3.7671777274598 3.7757412826003 3.4712096773794 10.276905382497 3.7342451028552 3.8063263837618 3.7955744710457 11.623867497568 7.1582003093234 3.5702783780352 4.0024156305212 4.0287906974297 4.2071195804635 3.6171389317824 37.621364541132 3.6328436192415 3.595113021042 3.5064503439398 3.28978199623 5.5940030982929 4.0120818059153 4.9334070172614 4.0340434450129 3.4152916543246 3.9090202327036 3.688552463423 3.8888306258638 3.1373809154465 3.7498316117187 3.4056234194072 3.8333143602498 5.6874202536921 3.8304411895756 3.757433608238 3.6726796059398 3.6264736609119 3.621297504842 3.7542952879951 3.8321282061421 3.879247940171 4.2212827007301 4.1008479182021 4.8788120461582 3.7782748835411 3.7805760410875 3.9119991576211 3.5399524599557 3.7235032947162 3.6632814637649 3.4765168589734 3.4255165823885 3.7180677678856 3.7772947561651 3.9120229816843 3.5936864640897 3.9069327787706 3.6317705980035 3.8507212865033 4.0212786474557 3.7669828541531 3.7428287930843 3.6630510746201 3.6685604903536 3.8525870702146 3.7699520474805 3.7006720068548 3.6280465519549 3.8093286895168 3.33693077093 3.8738307575008 3.5154232134296 3.5452015812697 3.8576034817252 3.5725716956347 3.4934753569028 3.6637722495323 3.7932208855966 3.7461884928988 3.7728518161238 3.6757595651032 3.9043488638838 3.9542047079386 3.9770516792236 3.7692145361366 3.3462751898489 3.8775524393802 3.7085248851866 3.3746767480022 3.6954961759495 3.9821234242571 3.3821727036747 3.3783218778646 3.9170458177403 3.6910967336294 4.0208409248305 4.3403325998418 4.2294991094025 4.0559627948282 4.0483917754212 4.0468565938919 3.8211347890114 3.7785277360748 3.9738749578138 3.6355661782329 3.9513223847614 3.7994465878713 3.9066756771731 5.1373219326927 3.5598815933982 4.0395811188543 3.7503772448107 5.7611512510643 3.9277624923361 3.8375939518069 4.0799761134158 3.7824927096402 3.625977550907 3.9402576008301 3.6241879728051 3.7199184528887 3.9968019430607 5.649087990659 3.9643853507604 5.8141765454377 3.9421705987861 3.9101559090056 3.6366649358243 3.5617637277592 3.6945806507447 4.140319570042 4.2507522780566 3.8872586590413 3.9362057141482 3.3335117825279 3.5438158890866 3.723447235267 5.8661921468567 4.156294211013 3.9914277018225 3.9047154631398 3.875420496705 4.0973571504861 3.5976456640311 3.8915456922604 3.6585794878505 3.560469575346 3.6362895257519 3.4903646743423 3.734854580977 5.305218703347 3.8019608175961 4.0293423880033 4.0222519165886 4.0824449963406 4.1833780393235 4.3178105279578 4.6020177138103 4.9249152127873 4.4456933828559 4.0783377006934 4.3569066575108 5.4817301580922 5.0503329046327 5.2411618075759 4.6991949163722 5.1590815874115 5.6762595407674 4.8834621478481 4.5642050454422 4.0729579601704 3.9371283525166 4.0978945893112 4.1395805538817 3.8790393147958 4.0959437214696 4.2144042848628 4.3539395323174 3.9101575098831 4.0731014571547 4.3799511515088 4.4053173479731 4.2727669473573 4.4879121828483 4.2612272181463 4.4293203598529 4.4530579199251 
SCALARS 40.00_0.78 double 1
LOOKUP_TABLE default