# vtk DataFile Version 3.0
d-2__ created by libgimli-v1.0.12
ASCII
DATASET UNSTRUCTURED_GRID
POINTS 1303 double
5.625	0	0
5.511811217919	-0.146388704457	0
5.676386535709	-0.13519637448	0
0.25	0	0
0.175228502521	-0.179050409113	0
0.326009290428	-0.144330725415	0
0.375	0	0
0.990207725992	-0.114957291708	0
0.841075314552	-0.137634199948	0
0.926498288371	-0.349340723189	0
-0.001071200562	-0.386156929004	0
-0.003317641763	-0.130454088023	0
-0.192720422374	-0.216308252768	0
1.25	0	0
1.175215748534	-0.200562384647	0
1.341115762259	-0.128605193971	0
1.375	0	0
2.25	0	0
2.168494514827	-0.19848886597	0
2.338304607341	-0.128945294536	0
2.375	0	0
1.911268305082	-0.334701951691	0
1.986191885908	-0.110806668109	0
1.838390258011	-0.128853462534	0
1.75	0	0
1.670105949089	-0.197137117999	0
2.986685504441	-0.10889534818	0
2.838723720416	-0.127406828384	0
2.912854264006	-0.329775839393	0
0.75	0	0
0.664572693147	-0.222613872306	0
3.25	0	0
3.168798596028	-0.193682232199	0
3.337828500197	-0.125181208794	0
2.875	0	0
2.75	0	0
4.25	0	0
4.161099470995	-0.193412132741	0
4.332718836325	-0.127723897736	0
3.83511440706	-0.12403687807	0
3.875	0	0
3.75	0	0
3.901908238995	-0.321557035295	0
3.983050435256	-0.106770030737	0
3.665527023987	-0.190866765849	0
5.25	0	0
5.164693411436	-0.21656556845	0
5.338419985376	-0.147288917438	0
4.834321952324	-0.135810575609	0
4.875	0	0
4.75	0	0
6.25	0	0
6.178399669611	-0.137425451145	0
6.356205370496	-0.193853696818	0
5.817814980918	-0.161175429964	0
5.875	0	0
5.75	0	0
6.611939839541	-0.314381537706	0
6.522886280605	-0.104721203126	0
6.75	0	0
6.669178832877	-0.119404962711	0
6.836073690852	-0.177498311423	0
5.39059629209	-0.37339102075	0
4.660917359886	-0.204007052252	0
4.902096977384	-0.356327271651	0
14.897042426984	-0.319128540459	0
14.98121339776	-0.105010975498	0
14.832720105416	-0.123004000492	0
2.669265824618	-0.196872625129	0
7.656019919505	-0.144451020927	0
7.75	0	0
7.625	0	0
6.625	0	0
8.75	0	0
8.672937461928	-0.164309120831	0
8.834289374889	-0.109279841483	0
8.206809119751	-0.294811800109	0
8.187056112549	-0.110869448227	0
8.024316200302	-0.129362764133	0
7.157390904024	-0.111206354394	0
7.25	0	0
7.125	0	0
8.25	0	0
8.125	0	0
9.75	0	0
9.651145885459	-0.185384966231	0
9.827054067621	-0.122428024454	0
9.381816956327	-0.305807769915	0
9.476753337472	-0.101567493772	0
9.327490061855	-0.116748040282	0
10.75	0	0
10.655660803951	-0.196164841752	0
10.830485405183	-0.127989131147	0
10.386748323888	-0.329675548046	0
10.478464938155	-0.108955040137	0
10.328560245085	-0.126395562242	0
9.25	0	0
9.375	0	0
10.25	0	0
10.15270392044	-0.192469144253	0
8.328856990144	-0.128933011689	0
8.375	0	0
9.153857570119	-0.175508527296	0
11.75	0	0
11.660624577581	-0.201812344528	0
11.833823570609	-0.131890823957	0
11.395399221028	-0.337817920558	0
11.481219500696	-0.111845889235	0
11.331881500183	-0.129806070652	0
12.75	0	0
12.669299873111	-0.199190799603	0
12.839534650452	-0.128328673855	0
12.40897914742	-0.340185307353	0
12.485654611126	-0.112072117633	0
12.336727606385	-0.131188239877	0
11.875	0	0
12.25	0	0
12.164627546098	-0.202605127067	0
13.75	0	0
13.669268468008	-0.186168180444	0
13.837322273199	-0.120178339978	0
13.416957459915	-0.319650485848	0
13.487510959619	-0.105281058988	0
13.34010202956	-0.123833443479	0
14.75	0	0
14.66080663422	-0.189613659871	0
14.399926333663	-0.319306441484	0
14.4823067449	-0.105599641009	0
14.334114343934	-0.12250571155	0
14.875	0	0
15.25	0	0
15.158227025815	-0.185762723401	0
15.330441202311	-0.11956675178	0
13.875	0	0
14.25	0	0
14.163960939829	-0.186365139356	0
12.875	0	0
13.25	0	0
13.171786689458	-0.193064330135	0
10.875	0	0
11.25	0	0
11.158129238503	-0.198418008741	0
7.31587636932	-0.171642077952	0
15.3902841013	-0.308450173235	0
15.478958243586	-0.102394874489	0
-0.125	0	0
0.125	0	0
0	0	0
-1	0	0
-0.706889652808	-0.331752981492	0
-0.5	0	0
1.125	0	0
1	0	0
1.625	0	0
2.125	0	0
2	0	0
1.5	0	0
1.488007132967	-0.109900770852	0
0.5	0	0
0.474245721096	-0.130043839003	0
0.625	0	0
3.125	0	0
3	0	0
3.625	0	0
4.125	0	0
4	0	0
3.5	0	0
3.485533411273	-0.107014956798	0
5.67736414417	-0.368119689468	0
5.125	0	0
5	0	0
4.98353533542	-0.118243061674	0
6.125	0	0
6	0	0
6.009467825362	-0.139471566496	0
6.5	0	0
4.625	0	0
5.5	0	0
4.5	0	0
4.481603306259	-0.111052305129	0
2.5	0	0
2.486482293556	-0.110456056597	0
2.625	0	0
7.828740664136	-0.157959666613	0
7.5	0	0
7.497789303332	-0.098817221798	0
8.625	0	0
8.5	0	0
8.493725508365	-0.094448160765	0
8	0	0
10.625	0	0
9.625	0	0
9.5	0	0
9.125	0	0
10.5	0	0
10	0	0
9.976983002093	-0.106037154081	0
10.125	0	0
9	0	0
8.980258705317	-0.095443922293	0
12.625	0	0
11.625	0	0
11.5	0	0
13.625	0	0
12.5	0	0
12	0	0
11.983083448534	-0.113269018621	0
12.125	0	0
15.125	0	0
13.5	0	0
13.125	0	0
14.625	0	0
14.5	0	0
15	0	0
11.125	0	0
14	0	0
13.984735949845	-0.103165953766	0
14.125	0	0
13	0	0
12.987740386932	-0.109238757727	0
11	0	0
10.980033547654	-0.110118532971	0
7	0	0
7.012790729926	-0.096165366155	0
15.625	0	0
15.653391866104	-0.184257106926	0
15.75	0	0
16.25	0	0
16.151956269841	-0.190746813766	0
16.328162175541	-0.125534698515	0
15.827345422636	-0.12109528269	0
15.881623705918	-0.315197408181	0
15.9768075603	-0.104841845177	0
17.25	0	0
17.155473725888	-0.187015736188	0
17.328334720487	-0.12053442359	0
17.375	0	0
16.97978281674	-0.105790715925	0
16.830585534618	-0.124270763258	0
16.892220832712	-0.321708894118	0
16.75	0	0
16.655725821363	-0.19281499559	0
18.25	0	0
18.144056513649	-0.199584109463	0
18.322695877645	-0.133173012767	0
18.375	0	0
19.25	0	0
19.156955168382	-0.212194778097	0
19.332395147696	-0.137501625504	0
19.375	0	0
18.978107771567	-0.118463258117	0
18.827251646435	-0.137822523984	0
18.884674261801	-0.359498065923	0
18.75	0	0
18.648603260315	-0.210400354993	0
17.973004229039	-0.108213471414	0
17.823362138939	-0.124125311933	0
17.87020700187	-0.324156104502	0
17.75	0	0
17.64837652944	-0.187413016584	0
20.25	0	0
20.167288289523	-0.206556633625	0
20.33799343326	-0.133667464393	0
20.375	0	0
21.25	0	0
21.172020853715	-0.201327641466	0
21.340729826518	-0.130206344264	0
20.875	0	0
20.75	0	0
20.839555732676	-0.132066213667	0
20.987710400762	-0.112937783384	0
20.915843633601	-0.342386775443	0
20.669904108595	-0.203936882105	0
22.25	0	0
22.168893714495	-0.194483818359	0
22.337089427477	-0.126591453251	0
21.875	0	0
21.75	0	0
21.840184239699	-0.127666317168	0
23.25	0	0
23.162361450448	-0.215073727418	0
23.335945395372	-0.148199257458	0
22.875	0	0
22.75	0	0
22.83504078106	-0.133126573368	0
27.412614995451	-0.337768305098	0
27.406417478875	-0.760610856776	0
27.663031754041	-0.476449210851	0
23.674319496044	-0.139602731619	0
23.75	0	0
23.625	0	0
22.902876337082	-0.348446434986	0
22.664415839639	-0.19979598046	0
21.987454968006	-0.109075483352	0
21.916658702332	-0.330379709848	0
21.67241042914	-0.19774510361	0
19.984830323221	-0.115851903278	0
19.835879034474	-0.135573032779	0
19.906686139011	-0.351521653308	0
19.75	0	0
19.663378765328	-0.209646647928	0
24.75	0	0
24.672305039303	-0.121865624882	0
24.84054616259	-0.178479133746	0
24.25	0	0
24.125	0	0
24.179559510218	-0.145425217914	0
25.656694723316	-0.141492417978	0
25.75	0	0
25.625	0	0
25.25	0	0
25.125	0	0
25.159224348757	-0.109007087058	0
22.647257188685	-0.476376729768	0
22.872248033711	-0.780455516934	0
25.317652966423	-0.167196322239	0
31.908525182248	-0.237434634112	0
32.248547795208	-0.367887731521	0
32.025	0	0
26.398062594932	-0.327144710524	0
26.335089901602	-0.124890632532	0
26.169730315141	-0.188549564961	0
26.75	0	0
26.662500836065	-0.197477656933	0
26.835401004001	-0.129534360312	0
26.375	0	0
26.25	0	0
27.486869476066	-0.111474770432	0
27.338367230812	-0.130187170762	0
23.816158307302	-0.168335740772	0
23.875	0	0
24.625	0	0
27.75	0	0
27.67023663024	-0.198727549038	0
27.839431305592	-0.128541986375	0
27.375	0	0
27.25	0	0
28.75	0	0
28.666013303123	-0.192953151514	0
28.835335299513	-0.125393524551	0
28.875	0	0
28.41074998604	-0.32692743598	0
28.485854239984	-0.108071323096	0
28.338261561589	-0.126341817439	0
28.25	0	0
28.169650699531	-0.195402875109	0
29.75	0	0
29.656991685033	-0.201213204108	0
29.830700495316	-0.13323291855	0
29.875	0	0
30.75	0	0
30.665605116896	-0.213760177502	0
30.837855425721	-0.139272404211	0
30.875	0	0
30.987248292653	-0.119871959545	0
30.911614165903	-0.362389547989	0
31.25	0	0
31.174363802618	-0.217041176186	0
31.346460135447	-0.143418487957	0
30.400599561582	-0.360265197586	0
30.483280501431	-0.118794220148	0
30.3336351656	-0.137924489201	0
30.25	0	0
30.159375273254	-0.21004086356	0
29.392934647931	-0.331414044449	0
29.48031118177	-0.110263057575	0
29.331777210358	-0.127344913482	0
29.25	0	0
29.160548153072	-0.194064979946	0
27.167334579456	-0.200440763045	0
24.359650796728	-0.20304719459	0
-0.25	0	0
-0.404335947278	-0.221464959739	0
16.125	0	0
16	0	0
17.125	0	0
17	0	0
16.5	0	0
16.478267427857	-0.108008273171	0
16.625	0	0
18.125	0	0
18	0	0
19.125	0	0
19	0	0
18.5	0	0
18.473681471998	-0.115768873419	0
18.625	0	0
17.5	0	0
17.47687846862	-0.103462148239	0
17.625	0	0
20.125	0	0
20	0	0
21.125	0	0
21	0	0
20.5	0	0
20.486446843971	-0.114298370976	0
20.625	0	0
22.125	0	0
22	0	0
23.125	0	0
23	0	0
22.983281399654	-0.116385827149	0
23.5	0	0
23.509214189908	-0.149359691049	0
22.625	0	0
22.5	0	0
22.48467632496	-0.1093719097	0
21.5	0	0
21.488472844532	-0.111208801785	0
21.625	0	0
19.5	0	0
19.482219828947	-0.117572233456	0
19.625	0	0
24.5	0	0
24.525433875838	-0.108080714825	0
25.824234283709	-0.149177038136	0
25.5	0	0
25.498573523516	-0.096586408813	0
25	0	0
25.014769107289	-0.095147895568	0
21.919931345447	-0.741308582321	0
22.160361550711	-0.463896476278	0
26.625	0	0
26.5	0	0
26.482631880244	-0.108512805864	0
27.625	0	0
27.5	0	0
27	0	0
26.984612185119	-0.111680714924	0
27.125	0	0
26.125	0	0
26	0	0
25.990349817319	-0.10847866492	0
28.125	0	0
28.625	0	0
28.5	0	0
30.625	0	0
29.625	0	0
29.5	0	0
29	0	0
28.983089608831	-0.107750428826	0
29.125	0	0
30.125	0	0
30.5	0	0
31.63125	0	0
31.5	0	0
31.494696987447	-0.123712578064	0
23.671261205816	-0.380102168636	0
31	0	0
31.125	0	0
30	0	0
29.980228243528	-0.115525062547	0
28	0	0
[...]
CELL_DATA 2263
SCALARS 1000.00_1.94 double 1
LOOKUP_TABLE default
8.5759768045009 6.8015804690112 6.8685272861331 7.9761694312122 6.6956994156377 8.4270016583623 8.5511606572122 9.1169259470801 9.0970271666918 9.1981061188482 9.2089071576109 8.400996456055 7.8381607081439 7.7638923709694 8.6877494666802 8.9335754491484 7.1982657586376 7.4472933442396 7.1123416389725 8.8105361455887 8.8317750915252 7.8991229697083 8.3233685933039 7.5533458613719 7.3424640389565 8.7135624289566 8.4551465769039 8.6270259274561 8.7549753077129 9.3157995507238 8.7792476941363 8.8850585326248 7.2851172128981 9.9078604428946 9.5882771693248 8.8783789736074 9.6896405349114 9.4277708372152 9.0528422133961 10.28729269028 9.4888632976278 9.1861922160553 9.1834549803458 9.8358934893856 9.2976722322235 9.4211053864698 9.387857326156 8.6238124232036 9.6459497791866 9.3573103172509 10.689122042072 9.7751196840095 9.3956516987695 9.6803215634238 9.6870420483757 9.5170434598299 9.0617653400261 9.7910398822889 9.5109637895325 8.7671643665385 8.9422759679808 10.357276938921 9.2704114813778 8.9938997666423 8.6953264134557 6.737271350484 6.7016445959581 6.2258758602628 8.3073429877692 8.1744602822918 9.1750983855836 9.3680190457014 9.0192866315259 9.2067214859022 7.4064901255356 6.7115006139539 7.980054894947 8.3719212739602 7.0647422144981 8.0815547132714 7.2540396882098 8.7382202259338 8.404091013169 8.9177471434638 8.3870391451578 8.2492895591266 7.4220044864158 8.7384204897594 8.7459345151272 8.5102245470154 8.9578467791817 8.816405936918 9.1972783890135 7.7219920225267 8.9205147925577 9.073688379077 9.7390387956035 10.1638513467 9.57822906805 10.021951677404 10.276244529966 9.3182159403302 9.5544568521953 10.016769700711 9.2464749684722 9.0930177126437 9.8814688864584 9.4408867025897 8.5401885342194 9.6933753666419 9.7878678393577 9.1213112844546 10.35803660642 10.896794190959 9.3383916219099 9.7183500292996 8.7969115282714 10.100494237438 9.5678038624166 9.3780549850035 9.8281397790561 9.5764452609111 8.8650587431075 9.9694236791598 9.8969229657216 9.5864315540487 8.4357826748084 8.9785340094267 9.3892297105303 8.89107395922 9.1522484093273 8.8985966489337 8.874265277562 10.216642545199 10.598611279114 7.8798042069649 7.8027221006206 9.8445829442637 10.055458964607 8.9079011806595 8.7513710934975 8.9750134947502 9.5968704769981 11.063363525842 11.104069882659 7.9919480573253 9.9892599880455 9.2459537239312 10.180244263573 9.2731379392869 9.147258536156 9.180863843272 9.1337083906255 6.7631948355511 9.1322312093572 8.9679128039933 9.1132521357201 9.116505483396 8.974825206121 10.051193757208 9.6039556624228 8.7614119307921 7.9288162751778 9.5605458285312 8.8252985953389 7.7425379705701 8.8395897649645 6.6427040738005 8.300616106723 7.505346378431 8.4079197015983 7.392393020292 8.9144612994472 8.6615475261642 8.5102698296744 8.3897156135821 7.2476462823326 9.16660600696 9.2541237943529 8.8146876441021 8.7695131154277 8.992582036456 8.883346880494 7.6820413906955 7.7038949192781 7.6253848573442 7.153488228382 7.6668341979773 7.7031327878972 9.4426092545147 9.6333960346294 7.2115570922958 7.9152703900261 6.547005005265 9.0107100256702 8.7412114720054 9.6693200655285 10.04018468192 9.4536053731438 10.52664519065 8.6936474955271 9.6895546708673 9.4447209277107 8.1605599842261 8.1127972812222 9.8570789346131 8.9333922493434 9.9150733253652 10.828442291541 8.064600457348 8.7379890798439 11.155199648095 11.133075884043 9.2908468622993 9.3874106003871 8.99773724377 9.359413569801 9.3690513767814 9.1758905969679 9.3802572069159 9.2563806480704 8.5329541250427 10.622924838261 9.8575858339021 8.5592817863972 9.5312647803014 8.4624120673081 9.4402408375104 9.5308497328289 8.9955440911536 7.7670475792897 7.6997993807676 8.1151915165439 8.2661505394891 7.8549149890862 7.3403273500395 8.7146197154723 9.124320360451 8.7476502640339 9.0965391527651 7.6854823666881 9.6093274179083 9.6091803354937 9.2571733788425 7.7903272281036 7.7224681984963 7.2263972507367 7.2383781411205 8.8166614782715 7.5306828016162 9.6702238973382 8.20125899169 7.2365007636117 8.7508845200188 9.1401835975207 8.27898875007 8.837606627078 7.1510920936624 9.0961164586052 6.7011203674506 7.7141674874403 7.1646192068366 8.2180782033587 8.8660777620529 9.2813611123007 9.1432103935358 9.0939102378263 9.3795246065498 7.5643042510661 8.1518302689472 8.1567143428828 7.444930596737 8.3828806894351 9.2395027401543 7.1240138513742 7.6565953401077 8.8470341459491 8.9030775312307 8.2153135430842 7.6091580687304 7.2488890811738 8.0243466837786 8.4821244928729 8.2815718074624 8.7884597594661 8.9792145077019 9.0896991891952 8.4893451315131 9.3879748174193 10.120971082779 9.8224429491596 9.1768223203799 10.089866115684 9.3384771987481 9.4960984344072 10.149470628726 10.248565346709 9.1181389653155 9.7302380831469 9.7382915960676 9.1560037316441 9.6889445122799 9.6792404098313 8.6872219645004 9.0194760646149 10.565230160261 10.0011994195 9.7976619964194 9.8708522493934 10.106168339888 9.3945022697686 9.4408130546551 8.9328183233977 9.7290645752964 9.7515376964636 8.8310037780358 9.4965961087443 9.6250473335572 9.4337587399561 9.944915806514 9.2796332330942 6.4481215912049 9.147019813699 9.5163804657943 8.7858594984808 9.6396992781289 9.2599532728255 9.3271163592373 10.271387578457 10.406601669083 8.3675486172028 7.9162942875342 9.4988104921836 10.196272100778 8.3102024218788 9.3980862912483 9.9875894194713 8.9714552423744 11.006175509115 11.146321781053 8.3320047285093 8.3183597589954 10.856690342174 9.3232648205631 9.3230008180183 9.4268778022384 9.299303517124 9.3441434182688 8.7189407234816 8.596443337216 9.2673396984062 9.2949793215121 8.6691400432298 9.415947133174 9.661247225341 10.326774896001 9.5787453522329 9.1396216556072 9.0623761804258 9.2409936253606 8.4485504918386 9.2663867915598 7.9109464702451 7.3402200742085 8.9094394820946 8.2390267210315 8.0392686330394 8.7602359143853 9.0935259840522 9.4901478615675 8.7174556485049 9.030307500381 9.411194366823 8.5234080796637 7.6967625203377 7.6776639498632 7.3996760469736 7.1203541069718 7.9527788657485 7.734190459988 9.6199208896336 9.6694127323539 7.2790797737008 7.5520589843377 8.4224369302423 8.2969006633763 6.9311409434025 6.6591904605471 7.0939078079357 6.7814594446872 7.1900574991022 7.9175781589536 7.958847022093 8.6375627681238 9.2747699696579 7.6684197814218 8.0597523050296 8.6727329090083 7.3003380254641 7.0705605087665 7.5263681894107 9.1564038877504 7.5820090045118 8.8616725202866 8.1209664266814 7.4182283109149 8.0343757219986 8.0009713528216 8.6493525839748 7.1499868981483 8.708480305021 9.0069192656187 8.7724041558725 5.9740503195371 7.7994570380168 8.8593381892871 9.1352925751086 9.0045564546348 8.9895363067633 9.8412699283313 9.9980832623406 9.5176302317322 8.4275640450232 8.4720684355 8.5262989105688 9.2488225602614 9.2970350939117 8.8941401570576 9.0009326788967 9.2386117587769 9.6864522884841 9.7952175189354 9.2169171628761 8.313984582575 10.739986821342 9.3082872974286 9.4507302843998 9.4159124272715 9.0580700334627 9.1851307757304 9.477315260224 8.9782236382774 9.8039183623057 9.633247422225 9.6062268949551 9.8035002553477 8.9401968254224 8.8635901057423 9.7133258839306 10.063866048045 7.4359112282583 8.9402659658687 8.4224188775258 9.0525838295151 8.6395516361676 9.6787058037545 10.730550444049 7.8510319713159 8.8493562496737 9.3412850273552 9.4213390702979 8.4614969222049 8.9946333400534 9.5997496858742 8.4952663984653 7.794651215046 9.7113248401105 9.3162076815611 9.7038022124081 8.0102948536031 7.9643093594147 9.3178726743616 10.353075264045 10.756659848752 8.576008279136 9.2106218847783 9.1479573002191 8.1958616672038 9.0946953165947 9.1932916554091 9.1170455497549 9.2406329405672 8.6147354552937 8.1778531629659 9.0209453292009 9.8263324788218 9.0495555804353 9.3878166491156 8.0794724569876 7.4073249863621 8.4789480264425 7.7504722120002 8.3495052322759 8.5510214578162 9.2103497754338 8.9597751273877 7.3774670159718 8.4042575930304 8.8445621856458 8.4943397393742 7.6136067851231 8.4584134626826 9.6684563159724 7.4014688214095 7.6895492206791 7.0819828019578 7.6312702394142 6.7969107981923 9.2397901742776 8.4680018947636 8.8399611261143 9.228682020883 8.218226292997 7.3751199936395 8.9165219359433 7.9946965897983 6.3327337695686 6.3423005391532 7.2529347420423 6.8400488388432 6.911039404909 7.0020350908828 8.4467152762348 8.6821072523775 8.9543468231567 9.0979880859369 9.0733078274122 9.3126114922948 7.7890904437405 8.0386260547914 7.5103238371981 7.5571732192073 8.6355872397081 9.1882268241665 7.1970034027151 7.3677083146189 6.9120007634571 8.8921905738399 8.8464640679614 7.810372706483 6.8496259066732 7.4584552370472 7.8527051649184 8.304036111274 8.1206152564336 8.8973065188178 8.4796031689651 8.5786770791996 8.6932218745733 9.175211173383 8.9207431602409 9.8218912909105 7.7212477641119 9.9557190281474 9.122413650218 9.4926787872849 9.9884234732725 10.31806069362 9.2179418881263 9.4771568609998 9.0740590748948 9.1222632075687 9.2630228014726 9.4152056638779 8.6542176937212 8.9116796074805 9.7347973033638 10.371612459232 9.7101771292811 9.8347029950427 9.3793317410273 9.4102872141681 8.6776175312592 8.8790603063348 9.5608206016777 9.5844947873871 9.1364298495348 9.2699099519311 9.2976693095416 9.3060168958209 8.4754701773143 9.1943367565031 9.0069468345534 9.5715949946987 8.9969221542585 9.3002530801551 9.1539964864431 9.0763878828905 10.169704123114 10.622351854902 7.7504204948487 7.8081314615123 9.5654176595383 10.131957806687 8.5531196269235 9.1456634684948 9.1734744212026 9.1907225833396 10.617227714704 11.080447959045 8.0174958403167 8.1294608612216 9.4886301903577 9.6734173043966 9.1170659716083 9.3623433025498 8.4974772652692 9.2392799794585 6.7253841986313 8.7520287407657 8.5504502526495 9.1891171917702 8.8564451470207 9.2632648617016 9.6985411436246 9.9603328160037 7.1949282929203 8.9627914513927 8.5384282913236 9.2963143538707 7.6659517583421 8.883084171392 7.9641878681766 7.3641403136781 7.8803414534185 8.3253509851042 8.2154844873835 8.6273344754769 9.0279043195843 9.3335645420189 8.6379415656939 8.909869616351 8.6048843484745 8.7050183716808 7.6029490981176 7.7053732671678 7.1734948443459 7.0982904219153 7.6379481743422 7.7049279012027 9.3630514616296 9.6494477844926 7.2108133340417 7.3510799861052 7.444954641122 7.9871559075995 6.4544631744112 8.8191657754136 7.7804920306436 8.9013892621423 8.5761324848012 7.196970835989 8.0615935437119 8.5259249876346 7.2302871572427 7.230021545723 8.1491915420725 8.6886358419524 7.8129032164454 7.2048226062044 7.3407777439329 6.9463422102215 9.6245899998037 8.597299778374 8.3463955657073 8.6565464864408 8.2280476003289 9.2604590664385 7.5420167749556 9.2646848676531 9.6761922579818 9.0249964956641 7.9041394972551 8.2950150401515 8.0439314773702 9.7877472811227 8.9509255563358 9.0760793304938 7.5197973498442 9.5391826814524 8.8545418674128 9.7680298961227 9.3322039029174 9.6101326361594 8.548434006713 8.6720115663523 7.6362725293991 7.4726504652582 8.0149635424059 8.8865180266611 8.2978002266591 9.7482879316903 7.7916432817569 8.7454979372688 8.7856185960471 9.1483720687569 8.16075229286 8.1136440690816 8.2653526005354 8.410037401474 8.6548199815415 9.3576644704176 7.8770670687135 8.7038173146736 8.5553002099444 9.1827708318542 8.6453711677712 9.1362480916077 7.5998878512688 9.2070270656084 7.6189244651069 9.5986959079757 9.0825962739338 7.8870216641465 8.0357601228974 9.2168872916768 7.071900830959 9.6550200304396 8.6511995558028 10.467900810142 7.220868710907 7.56484941019 8.5302832704326 9.0454091965081 8.4681929939064 8.3381889480067 7.8152361725978 9.1390814437433 7.8237828160284 9.2315581097205 9.20410809499 7.2345825458255 8.9350405543704 5.3374960948433 7.3608148624402 6.9165679969547 6.2015393828081 7.8830849822192 6.860664066641 8.0506696782388 7.8924682536148 9.0430116793593 6.4252459635577 8.9689001062951 8.9728195270054 7.3333572348219 8.7324980533181 8.5905710546917 8.8878052348464 8.4767746557675 8.8407137919946 8.3096239201137 6.9460956245006 9.2797589859815 8.4751853827447 8.0846854289945 7.5559352608439 8.0368168112108 7.5651138524022 7.5028861616758 7.0625178964206 7.1278324724559 6.7206584092736 6.6211878686529 7.1297506572686 7.632358328717 7.9032095219963 8.746728642832 8.0976669907914 9.0613791157415 7.120562904068 7.6660002570458 6.1141470095509 6.4108850190339 7.4110703376253 6.728589643521 6.5055470068528 7.5515868038954 6.5298556543897 6.7676455215507 6.8941896271353 7.1583754869371 6.1377604468351 6.8032011789738 6.4833029110027 8.598221045322 6.3337062446038 8.0497841042614 8.0543821427595 7.3931307503769 7.4223749552496 6.5324583244132 7.2699607373529 6.9540048071419 8.862447152773 6.8086616866864 6.687866378163 7.7140537558562 7.7674422996599 8.4627284173158 7.2357392953498 7.3393968194673 9.6495639033936 5.418283859452 8.2431972785578 6.733933197719 8.1317867445612 7.4117573060058 7.1898581882563 7.4601618901333 7.7822058414451 7.3375588791119 8.2406122182826 7.4560696447344 6.6061210170359 8.7464861897994 8.2801073703419 9.0612095955719 8.4124839859044 9.6532305769252 7.667455791883 9.1577385957775 8.0294344440608 8.7437705233127 7.7486222495747 8.8051326437504 7.7119398752642 9.0254771011602 8.2182060436865 9.2975768239026 7.9481948849567 9.3457019031491 8.7931878736551 8.8145056700201 8.4409365856772 7.2208720467313 8.1525724943667 9.0609726341226 8.3610495330019 7.8396519008098 7.2097625318827 5.0838212485092 7.5817077793938 6.4525369868234 8.1912212880488 7.2366500370711 8.504659323517 7.5414505530569 8.5799293392 9.3681461733181 7.5951841899863 7.717494651291 8.2799970919103 7.7460141455186 8.4793485481421 7.6058888033918 7.4611880609207 8.8621257334017 7.9561676071173 7.9882718906 6.5553100700347 8.9525943225892 8.3964632920285 9.6479000823205 7.5478838724045 8.409903284441 7.9668198397397 8.5922176936464 7.7822274755876 7.3885866602116 8.8688492758826 8.1932017264551 6.9354157752418 5.7673135539855 7.6920809152449 9.0992568462254 8.3394855948749 7.008284456911 7.323280898197 7.4967387377273 9.353677773281 8.5066039853296 5.4068400778389 7.8701685407296 7.5823532875829 5.6299422334109 7.259630590271 8.11565491352 6.03958524201 6.9528496095658 7.7021009506311 7.3925559876646 6.7102866960183 7.5074737845952 7.1011091205371 8.3064033665656 7.3662346209163 8.772526813782 8.0122317362498 7.2501372794191 6.857261589595 7.2387934060075 8.560544767133 8.9017672146554 7.2927800730647 7.0357302550763 6.5402747854577 8.397626551894 5.5764244041353 7.9243954145798 7.99832747776 6.7752271759817 6.1964712006347 6.7543675688477 5.3389262657996 5.4391629494108 8.4553093276648 6.4511579392966 8.6326389406661 6.8839391657464 6.3575956449293 6.5308038773242 8.1017631928205 7.1768666365676 7.545761364087 8.3241964299034 7.4452013636931 6.5688701976575 8.199960346703 7.1010539298344 5.5295402820023 6.1393928196019 6.4644863377768 7.6614822014268 5.9293418912705 7.9653306280827 8.0253080479539 7.4915572097886 8.1732825157598 8.7337793000561 7.6496059094107 5.6331010568989 7.3697362381771 7.9445426801482 5.2182333960107 8.5680568055386 7.0693995548619 6.7550976929656 8.6176434498535 6.0257233453059 8.1510311625309 5.6274275620934 8.0419212677306 6.1657899804109 7.6876163633875 5.6598366281496 7.5150267085372 5.6572958572678 8.5325464421908 5.0249804756917 7.8159806085042 7.8254896747262 5.3098147620843 3.9048179156501 6.2730056595553 6.9205473706248 7.0035149270357 5.8725909822305 7.7596224184099 6.1441426345236 8.5955144270315 6.0254169173467 5.7856175619435 7.2934280924381 5.8436539515107 7.0205865683464 5.942296210577 6.5487131186943 6.8228118370435 6.0363485001067 8.4741488591113 6.2432359974549 7.6750113559165 8.319912808869 6.9372692519081 5.9756741079344 7.1874494704687 5.0000583149958 7.6400982527738 8.087183564522 7.4299709057232 8.3091677295854 7.3316078503255 4.6934346450189 8.161184349835 5.7981781404939 7.6739273347596 5.6087573715099 8.0576163110267 5.4213432524717 7.4478877580052 7.5700832628137 5.6632638968828 6.6279257279204 7.6988861108082 7.1109279107128 6.6313258385809 7.0268742254968 6.1081618245146 6.7834789450378 5.9710076821439 6.2323578940185 7.9279340382619 5.7468558333869 7.2395309966645 4.44575725225 8.0040023263899 5.2967707420282 7.4617541660249 8.0425594025986 8.1260606191252 7.159421052528 9.0921537266905 6.4545195215374 7.6705122167842 6.9353849574563 6.1938389154471 5.1871723130127 7.0680087579683 5.3235636400056 5.0182879673867 6.0148221549509 5.4509145370538 6.0906451986398 5.7555317555866 5.9087654598429 4.2215401927971 5.9961034666449 5.8192296487441 6.0140280725391 6.2997472198204 6.1231206728807 4.9645863472525 5.9038322977846 5.8867730326309 6.069694651301 5.8995629497998 5.3917377272148 6.0435638549603 6.2939803668164 6.1987717250307 7.506273721049 6.2359722685148 5.8234028999706 5.865405705598 5.7704027260268 6.2395328949485 5.5667101510508 7.0715118924069 7.7410111711387 7.5729605443389 7.1363836579248 5.3782322503106 6.7570036992514 6.3219562330108 7.6730185677993 5.9548913027727 5.3439411438279 7.3489894324555 6.0388510364836 5.1619653389172 6.1538417176701 6.7972768825541 5.4718281817225 5.5173723622063 6.1315911915199 5.5399577891015 4.5468631288419 5.536419518325 5.1266664663888 5.1658332630967 4.5648966286029 4.5573768457683 6.0039237720696 4.8859741807158 4.2406803608735 3.9831129204052 3.6362711629101 4.2775175208786 4.4765082858186 6.3526661237103 6.7388780820583 6.11962542053 6.3187603421801 8.9860751540028 5.1797706622864 6.0089433553279 5.8206710494635 7.4380832351447 8.1457258935714 5.4106210751892 5.6899406489754 6.4003325733158 7.7515177036083 6.021269328895 5.7894665689658 7.5479015897924 6.2246930058042 4.9067464880153 5.3519428535573 5.2600278273264 5.1687598795218 4.3448410890014 5.1421735960827 4.4266696126509 5.7641176529686 6.1107027248859 5.997218557034 5.1884127519641 6.0425663383097 6.2031880715268 5.829102263942 5.163819755487 5.2802552193017 5.1036294404602 6.2660706366736 5.1534415394085 3.7808535613455 6.448230128348 5.7007279477702 4.899973245925 4.7682679631723 5.1685886526052 4.5594449705256 4.4606340567792 5.6773631505656 6.3479388476937 6.4490929597697 4.5659022235316 3.9398064107572 4.9494548059619 5.8096902445214 5.878030306333 5.8798078332058 6.1868869221322 5.2429596691548 5.4780604965535 4.7786754633369 4.5759407567881 4.198216311519 4.543601247797 5.3394830527149 4.1335393982183 3.77619505911 4.8424088267191 4.087738847552 4.3589404725436 5.1798712695501 4.3918535672324 5.0397555550811 5.4120235831546 6.013722526288 5.8801120452163 5.075905849587 5.7053563206696 6.247120023455 5.1370777346521 3.6347208491858 5.9796250574679 5.9613908616537 5.8878784200443 4.5750457932441 5.8566648846803 5.55549369014 5.5157523772278 5.7857310575776 5.0649318305393 4.3993021439643 5.2821367413501 4.5204274738058 6.3837724875431 6.0612522733047 4.6666340370881 5.4372149540219 4.7559205788098 5.2737857401438 5.754604110919 6.2076413601233 4.6764206694682 4.9854866304305 3.8093065173712 4.801611591357 4.4098548223547 6.2092234955668 5.1209654069241 5.4906818438235 4.7025273536559 4.2122653189236 5.2941379521421 4.597064458573 5.3012093370397 4.1420090835329 4.1808183526894 5.8827434976862 4.8933496599122 4.1308804459364 5.737779509626 4.7394721330088 5.552880086293 4.2934330375003 4.8386691241743 4.9224310493044 4.2859430671338 5.5635821520677 5.1845147155496 6.2058309552542 5.2444691061969 5.7768538299084 5.6619964607392 6.1068449414539 5.8594988633041 5.9209313488397 5.144101111655 5.9657507107472 5.2976303577562 4.4872149243246 4.1120470263601 4.5342432527712 4.7549796145193 4.7073318396716 4.7578034471247 4.1266956908317 5.4495806115276 5.7853063750729 3.7182941571948 4.4179217645688 5.1327214319222 4.2605574465734 5.4809690424481 4.5769138717095 4.4974956255735 3.7887962251804 4.8527073727519 3.8091632542887 3.8963361414843 4.5769190854384 4.2186874896878 4.7131065570274 5.44170721617 4.762721401129 3.870066888161 4.0644436941642 4.2365759531804 5.320093429182 5.8134777429337 4.9290390203449 4.