# vtk DataFile Version 3.0
d-2__ created by libgimli-v1.1.0
ASCII
DATASET UNSTRUCTURED_GRID
POINTS 570 double
14.5	0	0
14.25	0	0
14.386963504964	-0.201738469428	0
22.399299936458	-0.310870122736	0
22.129824335287	-0.229914148082	0
22.126320781198	-0.518791771445	0
8.472303742627	-0.591754876635	0
8.780507935475	-0.76092407121	0
8.82173151259	-0.349253271447	0
18.663262297679	-0.667179415955	0
18.934786529245	-0.453308328646	0
18.636898038907	-0.29588182328	0
4.016904362632	-0.85330676142	0
4.076038737616	-0.331410355179	0
3.713721571226	-0.470767763626	0
1.89953779852	-0.269343012166	0
1.633800503821	-0.203067612233	0
1.644492760828	-0.441295523531	0
4.368408037607	-0.250833874131	0
4.337474161742	-0.544420985055	0
4.67745607622	-0.378433532554	0
1.406172533733	-0.772361039307	0
1.913288206557	-1.218576310882	0
1.90687689783	-0.651895683444	0
2.5	0	0
2.25	0	0
2.347047126858	-0.185539804102	0
1.374000926997	-0.300418771701	0
1.25	0	0
1.114902662369	-0.201591505098	0
1.067401015567	-0.470108640981	0
5.75	0	0
5.699780065382	-0.324747799653	0
5.924584257371	-0.172748359932	0
0.883560935405	-0.231136840652	0
1	0	0
9	0	0
9.117836368049	-0.253904480787	0
2.625577516194	-0.346770599322	0
17.859079774019	-0.943547525024	0
17.535029634209	-1.703182852412	0
18.338018094476	-1.366069799339	0
19.932263871771	-0.826489183604	0
19.881635677668	-0.346204516721	0
19.622287080959	-0.573770479943	0
1.5	0	0
1.75	0	0
23.25	0	0
23	0	0
23.109690227386	-0.220340974338	0
2.75	0	0
2.142562771237	-0.172460438312	0
2	0	0
23.332392704446	-0.202507275941	0
23.5	0	0
19	0	0
18.75	0	0
18.888143078348	-0.195773419804	0
2.90152418742	-0.185685383897	0
7.612175045312	-0.180627982114	0
7.527150943175	-0.401430797998	0
7.881917737402	-0.30462800112	0
25.630635194756	-0.512020961038	0
25.243766894324	-0.80097755811	0
25.758031115142	-0.952821630144	0
3	0	0
28.84859809239	-0.201276387394	0
29	0	0
28.75	0	0
4	0	0
3.835807353334	-0.199536243303	0
3.106904732949	-0.178783649348	0
29.25	0	0
29.092446172194	-0.305987136665	0
13.5	0	0
13.667851890428	-0.185102765244	0
13.75	0	0
3.75	0	0
14.407363653886	-0.441423674912	0
14.125469935998	-0.279652141152	0
4.25	0	0
5.061980176718	-0.407989246181	0
5.335512032876	-0.269401530321	0
5.113979852892	-0.173834924157	0
11.882046000841	-0.812345557852	0
12.478640631525	-1.146569360669	0
12.244190771573	-0.565936619511	0
3.633270844505	-0.195395238442	0
14	0	0
18.378272976509	-0.514977451159	0
5.5	0	0
9.619519097921	-1.16461851757	0
10.030576753886	-1.587265312651	0
9.961661342999	-1.070235523667	0
5.25	0	0
5	0	0
13.157975569138	-0.830425793913	0
13.83833027638	-1.238601004239	0
13.671302359608	-0.710707966059	0
11.325917093147	-0.8366783502	0
11.612143285947	-0.506264798476	0
6	0	0
7	0	0
6.83842404292	-0.188923754932	0
7.11236984822	-0.391746146843	0
6.631875629497	-0.169178192832	0
6.75	0	0
3.21002197083	-0.595267231049	0
3.445510026908	-0.608065324465	0
3.362318141622	-0.306501255187	0
6.120159502895	-0.164221934939	0
4.538525595924	-0.906226152762	0
13.233775457127	-1.737244787017	0
4.5	0	0
16.138065841822	-0.472802517973	0
16.126746690205	-0.221608117926	0
15.859319180798	-0.326402762318	0
26.080401003391	-0.227842452866	0
26.25	0	0
26	0	0
3.019224421113	-0.401469974918	0
8.234901607028	-0.35771789179	0
8.518285578354	-0.242327591839	0
8.328777073389	-0.153008859619	0
7.25	0	0
7.400656881666	-0.195280611572	0
7.5	0	0
5.385509485898	-0.709154879541	0
5.948697127931	-0.745234910621	0
8.75	0	0
8.5	0	0
8.25	0	0
2.214249105773	-0.404278959534	0
2.896561357202	-0.792481120253	0
9.25	0	0
4.920911116561	-0.192028847294	0
9.651670336652	-0.200847798694	0
9.849824537955	-0.19917205686	0
9.75	0	0
10.095049354068	-0.315754204277	0
10	0	0
3.25	0	0
6.738406513564	-0.710129601907	0
7.121614580011	-0.943026074581	0
11.345829942703	-0.314788260019	0
11.25	0	0
11.104427225455	-0.188863495516	0
6.052412255932	-0.372556729023	0
6.373371846535	-0.274163514827	0
10.25	0	0
10.380281579003	-0.241092027437	0
10.5	0	0
10.75	0	0
10.909079077441	-0.189427130481	0
11	0	0
6.25	0	0
6.5	0	0
4.75	0	0
3.5	0	0
10.672815698565	-0.318467932684	0
10.772487906066	-0.787092734739	0
11.020900486567	-0.439266778492	0
8	0	0
7.75	0	0
11.5	0	0
11.619450354737	-0.231443672836	0
11.75	0	0
8.139317726831	-0.163309591658	0
12.25	0	0
12.158949464947	-0.235415698299	0
12.412455385193	-0.275030800337	0
12.929165084344	-0.221336108042	0
12.686337592177	-0.258437422252	0
12.900449535554	-0.462768612232	0
12.5	0	0
9.405755833308	-0.325979504745	0
9.111697192308	-0.594170467817	0
9.457257345083	-0.753685223931	0
18.101369157139	-0.618560521812	0
18.336839281097	-0.861122419318	0
10.385948631267	-0.570640149046	0
9.5	0	0
13.411260455969	-0.342646276848	0
12.643108055516	-0.590179775368	0
13.137744715761	-0.195204172124	0
13	0	0
21.25	0	0
21.358341816502	-0.326561417551	0
21.5	0	0
13.816492716597	-0.40394453634	0
20.25	0	0
20.423452336785	-0.313445603959	0
20.5	0	0
17.789350393153	-0.390447709085	0
17.987794057246	-0.401472255242	0
17.881276545163	-0.206424156589	0
19.564465692234	-0.270867872644	0
19.290725118801	-0.49926248604	0
16.392319441256	-0.29915360323	0
19.443730892406	-0.923508713428	0
20.457987075478	-0.803203365193	0
20.167450719332	-0.505159975143	0
0.103762538371	-0.253013629949	0
0.267057015134	-0.483604909932	0
0.374713194419	-0.2320817565	0
13.25	0	0
17.415572543912	-0.230682214253	0
17.5	0	0
17.25	0	0
18.108153655084	-0.208141099276	0
18.25	0	0
18	0	0
15.75	0	0
15.544586046819	-0.246453491997	0
15.122708481244	-0.193620038745	0
15.25	0	0
15	0	0
19.75	0	0
24.149237782749	-0.319013340846	0
23.842766599446	-0.577371105011	0
24.183995039967	-0.73159476451	0
13.871646321742	-0.17394291424	0
23.862588150518	-0.245417872715	0
16.84024277193	-0.203626765466	0
16.704049384397	-0.435508179396	0
17.112673188265	-0.38804641709	0
24.75	0	0
24.832880292394	-0.290571430318	0
25	0	0
16.40158555625	-0.755912194683	0
16.850299990829	-0.757941865332	0
17.75	0	0
23.567455674596	-0.325197491724	0
16.25	0	0
16	0	0
22.645812614293	-0.197864648876	0
22.75	0	0
22.5	0	0
16.75	0	0
17	0	0
24	0	0
26.914424714815	-0.337869958787	0
26.621963281699	-0.624626679172	0
26.977877660759	-0.778408201088	0
26.622424322919	-0.264588309935	0
19.34462271879	-0.199329831305	0
19.25	0	0
19.118057075065	-0.225686869553	0
19.5	0	0
26.75	0	0
27	0	0
27.5	0	0
27.604422363523	-0.298869962794	0
27.75	0	0
17.650384190064	-0.227839036584	0
18.343198956448	-0.236734208617	0
18.5	0	0
24.25	0	0
20.143897114391	-0.233773711865	0
25.5	0	0
25.25	0	0
25.344389320279	-0.31693710653	0
21.059546193318	-0.24845941382	0
20	0	0
25.842927934822	-0.248287716678	0
25.75	0	0
25.613904645132	-0.216025146631	0
21	0	0
11.763551406169	-1.481607093928	0
30.981104050195	-0.5526690913	0
30.873880294509	-0.217692518774	0
30.706626759758	-0.34945139905	0
20.75	0	0
20.85240828135	-0.178025243856	0
23.75	0	0
20.66289882074	-0.189089155251	0
30.204950808504	-0.791758966623	0
30.715535843381	-1.149995259266	0
30.543724897762	-0.572259098027	0
30	0	0
30.180216671806	-0.343473673313	0
30.25	0	0
23.229584388362	-0.458653998547	0
29.5	0	0
29.623391954444	-0.322069028408	0
29.75	0	0
21.618913855927	-0.233585823579	0
21.75	0	0
29.348490380579	-0.521100538161	0
29.36294710412	-0.230601226356	0
22	0	0
22.25	0	0
28.25	0	0
28	0	0
28.129259193923	-0.314252106503	0
28.44374413871	-0.484576386004	0
28.100199615755	-0.812038297775	0
28.649230646972	-0.871769248311	0
28.618403654115	-0.227691192115	0
28.5	0	0
28.387848605749	-0.205892081491	0
29.054768525933	-0.708603081552	0
29.344906532636	-0.846887322836	0
26.327430876245	-0.35930637997	0
10.349120516034	-1.04150119828	0
10.894920134778	-1.514321070539	0
24.59640839418	-0.191760546865	0
12.75	0	0
24.5	0	0
13.102881121377	-0.411296235356	0
25.099388239946	-0.214879887129	0
25.97986022697	-0.52841375324	0
24.398993403151	-0.196312410538	0
17.860840746535	-0.577367743328	0
17.566481510048	-0.529340016102	0
26.5	0	0
16.637148248735	-0.188015807345	0
18.183918302467	-0.396443618316	0
27.159348252167	-0.205297590358	0
27.357530053515	-0.198815038154	0
27.25	0	0
15.060354649709	-1.112587998155	0
15.51532665618	-1.043792149387	0
15.178150912169	-0.713100616689	0
10.051363365948	-0.719159376333	0
14.661248691948	-0.27865166374	0
14.75	0	0
27.868836823455	-0.217301839861	0
31	0	0
30.75	0	0
-0.020273477909	-1.415389842481	0
1.054972770973	-1.487485199502	0
0.512583677021	-1.0438154777	0
0.75	0	0
2.361419414365	-0.794513604096	0
29.890297721653	-0.2433406165	0
30.473599299501	-0.238575611274	0
30.5	0	0
30.660802173874	-0.161931182737	0
28.783812899585	-0.467926883932	0
4.937022539393	-0.72440615077	0
6.696914540879	-0.380672503721	0
7.434272221796	-0.695675918868	0
15.339606453815	-0.166204802571	0
15.281953315711	-0.388999642276	0
11.893544445085	-0.335972898148	0
12	0	0
9.753796445798	-0.478866225926	0
7.720012958977	-0.638314519759	0
21.871398197179	-0.313006985103	0
21.615176662754	-0.521922347305	0
21.856785525528	-0.665128848631	0
20.792152536902	-0.448319093295	0
21.109577821412	-0.527879642114	0
21.360297691811	-0.734200004244	0
15.547854961707	-0.580173571081	0
24.496861814148	-0.467031445896	0
25.067351422649	-0.463427753535	0
24.81263825963	-0.684738154192	0
22.865620821195	-0.218348593093	0
23.443705587002	-0.773171720633	0
27.277617447467	-0.489224417775	0
27.863714790534	-0.471681393437	0
26.239117668995	-0.863279739365	0
29.896797054636	-0.547765129844	0
29.612773839625	-0.699757135752	0
29.867172666547	-0.87444432816	0
29.610354212963	-1.521444655905	0
29.59548165142	-1.071765512911	0
29.115129171034	-1.220660174798	0
31.345359428525	-0.458952144926	0
31.144859415042	-0.241304201582	0
15.919565295974	-0.746550096707	0
16.063006820294	-1.289595303187	0
16.5	0	0
14.900855313538	-0.178071167744	0
14.161016743654	-0.72559708689	0
19.011498044983	-0.834202892304	0
16.760433281999	-1.263698818643	0
17.280361389946	-0.931704507314	0
-0.627742252535	-0.296285438777	0
-1	0	0
-1	-0.5	0
0.625738545692	-0.228405936136	0
0.5	0	0
3.313957665883	-0.865581185485	0
3.619156095452	-0.800599314657	0
[...]
CELL_DATA 986
SCALARS 20.00_0.54 double 1
LOOKUP_TABLE default
6.148323507677 9.423084451914 7.9118170910515 5.6726538406755 4.5812839006566 9.0641057274816 9.3680758375409 5.5147032065305 10.62969540743 7.7594421100896 8.4013177364844 7.6014979716976 11.554453678711 20.839291704061 12.681914628301 6.8096477598155 4.0926831813506 9.4480082498507 6.0469160825046 7.3170901431132 11.694122467165 11.464890479555 9.665533786528 8.4475645355186 55.134909776118 9.0810745618266 10.33795872765 4.8879495838284 7.1233020689259 11.656191589651 9.4201267178693 15.002073925052 8.6805738881418 17.497961237117 3.54901468228 13.171846010068 23.041666634891 10.565802663439 3.7035438425418 3.558572338419 7.3030496137414 2.9357544053999 12.10158848812 3.5583799866076 18.431719277139 14.610081751139 5.1716093273643 5.5921813620769 6.5657645692448 9.4441702364167 10.668125708505 4.6742359994844 4.4401777276013 15.761093514106 5.8995919573552 6.4663025113165 3.3448367902342 30.838583755691 9.8759546635613 5.5781677938434 7.0406762363611 9.7137271903904 14.025133263789 7.6570094970374 35.102290127494 30.312113125801 6.8168601725673 6.6503117343217 10.750635429868 12.090321038571 10.854620311392 18.840438844334 33.638314745892 16.093165098405 11.642234454106 7.3481958967375 31.574224124938 12.548722496173 15.792061697436 25.15707619744 27.416182298963 4.1939670415778 12.778025131987 10.323640237263 7.8573858141821 22.519408998001 10.762067064082 8.6034290306943 44.321463143126 42.278584022616 7.2537435988424 9.4661455192965 21.906868664214 25.285956829581 8.385889905901 11.374347993102 11.64677876963 12.448850223236 21.275366565732 12.231252201733 28.404225833369 7.117935796641 7.590300098845 31.580081213693 4.0512988940638 3.458531916866 11.465908521639 5.4201751381657 8.1909769713014 10.907492410045 5.3118695801242 15.673707336072 11.543980218736 4.6219993637791 8.9869384322966 10.807614098795 8.7073565245103 7.9161094598149 10.636336109053 9.8175290629364 7.6343494130527 13.550998032823 9.3746835984091 5.0807772029815 7.5627123168537 14.511587140291 7.5153564842257 5.6993957875147 8.2874074220568 12.118308974136 16.001832407414 7.2259156664883 42.430603286082 7.3672061268611 4.7421057371143 28.20225759014 6.9003358740955 20.762379445051 37.784696788183 5.6432405931156 7.519284797276 7.8538243902399 14.581299636061 29.989074049365 101.48660158476 49.331429318903 8.6765610313335 4.89789101487 14.669716124667 7.5770499875654 7.3697544460138 10.631854396687 6.8756509573132 5.4261382744964 61.31758788239 18.036352368728 17.515470953468 3.7746574747632 7.7578077801636 9.3918302475235 11.075358294903 10.264891089557 5.4049037160201 11.165038262939 19.217371171632 6.7538119844417 4.3115925425417 9.5654599925071 17.145896413625 18.573501593482 26.5345060189 5.5557660409478 3.7559284474736 4.0625097462796 10.121177353788 25.650363817921 17.349800448053 9.1302733792567 10.973481831085 15.763476304866 11.615012572969 9.0674392665021 15.022208461008 5.3983928938248 6.7728246163389 10.843615672899 21.069764264701 11.519414884901 9.9160374706809 5.7749236565859 8.9503459200986 4.3407079393304 11.786941482022 4.0857400148192 14.888929492965 9.9549642059267 3.2825460931328 21.252564497689 11.797683839498 9.8321593818139 17.99987397817 9.9373235956014 3.1368116492029 6.3924167057882 13.686067189541 6.6684108341414 8.1476376068821 19.96106556609 7.6614398487989 23.732805582084 8.6551516464752 10.94847169149 15.583369489646 6.1457397318003 4.3060818190794 3.4762296824137 3.3346244280901 12.96905743862 4.2063919364871 13.528469251262 10.479593040336 8.7614008907351 25.874780565861 11.782308186025 28.155820381999 11.053483519123 11.374077335328 22.838519576032 9.4670735604816 7.3505383038192 15.584026051151 3.955232549244 9.469295392688 9.5832640726826 18.41346454336 9.8527742866676 9.0774626469579 6.794529676369 11.19853552732 10.034156887563 5.5759307189747 5.4225865492095 11.110804392487 14.129958148165 12.499760361976 15.343878853939 3.091050016318 13.226701747402 10.712580761058 7.4140061545652 6.2192226751626 6.2379303812316 5.7923536441203 11.285195391718 14.367543274824 4.7708838841907 8.3083552816977 11.720731683927 6.8771968253116 6.0273958912414 12.391490756399 20.891850867232 10.310298453782 10.942155302348 6.2496591622219 14.848938225524 7.9145619893141 6.113358753277 3.8593823399441 4.9450380280998 8.5059850229438 9.9436690640291 12.783918445679 14.943255170296 27.156952824208 17.775014144532 3.8948192638205 7.0305648575322 9.6666818644835 6.9891223782486 6.3121434617645 9.3394566284392 32.896963381355 14.414546716294 5.2983919521813 17.554928714384 9.8195982777271 17.306811651339 8.1719849247513 9.671643137372 8.2006943770333 8.2294234931919 6.1119701327858 8.9140002033095 8.8516288295972 25.982944182088 7.0348451603726 16.075722777717 38.007076467333 9.62675510866 4.3217773552615 10.696170462657 11.385747972364 11.071412044764 3.2432118935318 6.5543066552893 9.8114239910225 12.192369870353 7.3730862660181 13.43229931652 11.393749912511 10.236909375 4.4466343839023 5.7104766708247 11.138982772488 6.5371777117528 33.933166425802 6.9089642529296 7.8156528186763 10.740179063271 12.361369892001 11.062157583485 5.3007025998126 5.4396269378259 8.5267685687667 8.2412103305641 23.948338431369 6.4496795149314 4.1130435948083 3.6149263283078 9.6625271065201 5.5474203166801 10.876479147229 12.853299288756 7.082575272531 10.651483855655 11.305120556281 32.88874329834 8.4006278803528 19.658826099331 4.909515465304 3.2900459288579 9.6605327810605 22.367000001955 16.274220615637 12.824169332968 11.310572905021 17.789383065216 23.098091966416 2.9260642978788 9.9100172438199 6.2353305337366 11.765559387769 5.7148185456896 3.1995777813321 4.4278280924927 5.584213205563 7.720031636228 3.8654244103151 10.622221298042 6.7371255391261 3.4676573912635 8.0158476158459 7.9236215345708 9.2577840091802 5.9181450833292 4.7510191227178 3.5818827795137 6.1863964289 13.565537885259 8.6961476116133 4.8410082007936 4.1256879695408 3.6428503218729 5.9292408057511 10.172883633993 5.5091576811842 22.932357538629 10.493613052847 3.3198947736603 3.7403090133761 4.0394902038145 7.9684218051725 6.575232271218 10.205774506623 51.463961726324 10.229984095228 11.454303933805 5.2312884883363 22.57100232132 7.4327265215114 7.48371215245 2.7442303854117 13.096351626555 8.183402723757 4.0933042616028 3.0802915096583 8.7074923884426 5.7767674573129 9.0627846066224 16.23820714126 15.571326710532 10.143922897349 5.0058895991324 3.7055818753918 22.660331629059 3.4921378034238 11.34860969357 11.138520168254 6.205254043408 13.611216138703 7.4804031727188 8.9646920080906 5.1890466892118 10.022744328881 5.3905094269466 4.1647706343375 6.0105113853504 3.5508691669519 4.8885796664693 4.932132884725 24.967531528435 9.3054867048583 5.1634053387851 6.791135798588 6.2385822971375 4.4291758180777 6.5559707524345 7.9436609461969 5.4261933780279 7.5152224493273 16.806455745211 11.173558869403 10.36800561997 11.050990516339 13.826411050084 3.4333859455256 7.0916806401415 3.9302933037439 5.2306556840822 3.3508757855228 6.7900299893888 16.286175965608 11.923823652005 3.2302207259815 10.707802390891 3.4430628551619 7.7657230457901 5.4999134425255 6.0389634023309 12.01316876121 15.672315142149 13.85852583965 5.4848136413225 4.1860609164739 3.6105368231709 6.8123072348952 11.441292832527 8.7512677461203 9.6964322916504 7.8474581933834 12.846674308936 8.3543471344858 8.7654031425162 4.5787437469686 3.3278520608301 4.7051970653691 4.9451722220528 3.5679023271539 3.6790644981341 3.5179482119696 9.1251072597182 5.2275879719512 3.3056738105846 3.417833488996 14.682488565287 6.8467479287399 4.2363361027159 4.6206169516629 3.7487218734309 3.8704318249261 3.7629470978532 3.3173543269697 17.68293107246 8.0831460115938 5.4505849675295 6.1251259056294 19.939976471845 7.4425248843209 6.3784929556874 3.3879727548072 9.5084874435852 7.5614094758328 13.942872132004 4.0770246731247 4.0139222410586 3.5296381621556 3.4515567097485 4.9647666028915 3.9833608434277 4.563209322215 5.4403412588561 3.4201017949342 4.1967777841457 6.437903291878 10.766019676192 3.8876393997069 13.866440549022 10.292651319303 3.5958297848238 9.6638101240336 13.1895438425 11.033934386221 3.5801221381656 7.0655522575448 4.7719764802509 3.897684855277 4.3539081750947 3.5224908067909 11.206976280091 11.039742961805 3.2428048838795 6.5745549265253 5.2575993893996 3.7314737167443 4.4175657307376 3.0665377038252 11.861296020848 8.2148787888309 9.8553659582773 3.9841402127816 10.365976793197 6.8099870851913 9.5018222801665 4.058428793845 9.7364683565892 15.488373729239 11.581479576627 3.7572541339571 3.5136523489795 4.648694340833 4.0792644460485 4.0427108464073 9.2098371853531 3.777134302504 7.5656375334272 3.2833990932668 3.7064760412597 3.3673995820616 3.3260985695293 7.606856098971 4.3373315989681 2.8135515333028 4.618811586264 8.3363366176648 6.8803537858482 4.3007257988173 6.8064352348379 4.31959036447 4.6310495506533 3.958709058614 3.9119918005585 6.5351903840907 4.4824944897083 5.5182528485025 11.009294178718 4.3032651867675 4.1014948199368 3.7904770857523 3.8254441425946 20.375939294446 4.4311662786886 7.7610422465979 4.9519138987837 10.216815857561 11.207646766447 3.6395538137942 3.1692024233887 6.2943762126665 5.0169994743104 4.6675913041977 4.6097050039468 15.830480057104 5.6708007366627 4.2050451700435 7.5378679405543 13.80265621386 6.1869104219931 7.275681060007 5.4117008355463 5.6522099687882 4.479581316682 3.206564578763 3.608028824261 3.5914256136852 6.0596720699641 6.516562243395 4.0889679387506 4.5798570752381 4.2989062534189 7.1044198960437 5.5456665259048 6.1783942620742 4.2046495653668 3.370319770519 3.4318467682883 3.8817030913781 5.0611302816979 6.7286592442282 5.8438253556752 5.1017703109538 4.0991830240266 3.5900966920465 12.352576198474 3.405843872884 16.472068003793 5.051496611109 3.5849161551381 9.2514827439748 8.3299954310547 5.1041163971736 6.5192833539921 4.736054023388 3.635257481177 3.8327640540307 3.1960386619065 6.5128950826899 4.0850816325769 3.3955624296819 3.7663557280509 3.3638638577158 3.9154477914106 3.6373406758038 8.2886627103304 2.7545559615648 7.0475090421836 3.4473518758104 3.8686485696976 3.7025327779221 5.174970077072 3.4700408749126 3.5961251175236 4.2415405701919 2.9635929731639 3.5073885694519 3.988578207622 10.231946642988 8.4364460607412 5.2284149456259 3.5178455344554 3.3605351960854 3.5712478899262 8.6075919952309 5.4121930910996 7.4019936218908 4.8185492858657 11.568028815013 10.078439466526 3.2518803271949 10.262975709839 3.3193802341795 9.6210493086725 4.6951423004984 8.1996597520777 10.916662185893 6.344315511282 8.7204282031136 7.7087121743733 8.7339969960291 9.8867625531406 10.506195547237 7.1166156387706 9.0725769151759 3.4667557149288 4.1753498476235 9.2335540367247 3.5337830616912 8.553720030023 4.8738462205615 4.1086871426162 4.2429183556668 3.8224970526038 3.6828911221185 3.5296012713091 3.7460140420595 3.2012637288834 3.4023932303269 12.830719315563 5.1374887121445 11.655722643581 11.11373198317 3.4700060325608 4.0037234906184 3.6908491186458 3.5490744260004 4.1192988497674 3.859432132996 4.0777100781804 3.8185503572309 4.8185997620873 3.6179595956457 4.2970096313206 3.8281754253978 4.7023328835893 5.0998317043667 4.0860400357534 4.0803418577985 8.3642442800209 8.0046686622119 3.9777786779726 3.9847838967447 3.8694424096563 3.3967552351588 3.2522709149221 4.465927872471 3.6571701589629 4.3942508159642 4.6300007939627 30.125374819661 22.508958974508 3.7341689437749 3.8541227948707 5.3611080252589 3.9708767346313 3.1968531931039 3.2749706401525 3.7987929279458 6.0611111392574 16.782374966803 4.0092216828238 6.188448359946 3.1356569255427 3.8097565580723 12.700561562615 4.1278205642236 3.999852103179 7.5694771466308 3.5978634327926 3.4845883587467 5.7216820020232 8.2430495572228 3.9759940408982 3.4380909069782 3.6458268402127 4.6325572662657 5.0614190477338 3.761445539606 3.6053500260519 3.5707631156224 4.0012408164765 8.33401138762 3.1987198336489 3.6821951363428 3.5779338517902 3.7011239613028 3.1916500224847 3.3501521099432 8.5202637614581 3.5521143231302 5.051959028605 3.220546135182 3.4569889334627 3.5790236535588 3.0907033512877 3.4873093490616 3.6171759554617 3.8574868112721 4.0248745306087 4.4353603423872 3.8965749955923 5.1534237069004 3.4266685356749 3.4405345542 3.8119174857753 4.0050726278016 3.7381317172782 5.1338113414423 5.7793873791804 3.320132582679 5.1079966727478 4.1631393073759 4.4079079826182 4.0717088433164 4.2012519629769 3.9147576405293 4.0782265640757 5.1046340290125 4.0278730175277 4.33998432831 3.7007245588871 4.3767860044367 3.614068200726 3.341345078375 4.2115459208833 3.4694292439211 3.4114468598476 3.5325757169585 3.4780144516062 3.5538924125921 3.5611560382848 3.6006639872477 3.7061946822395 3.2352795922397 12.349822270517 3.610329891905 3.5154591443247 3.6339824114038 12.923348139611 7.6808784462786 3.4936435647865 4.0530251122061 3.9730713098471 3.997883611954 3.5116461233019 42.846335938446 3.518074521953 3.3524378874477 3.2748136543682 3.1749209199821 5.9701122332882 4.1289044125743 5.1884797996793 4.1795968945403 3.2621931479515 3.6611429252925 3.499869143595 3.7680945259293 2.9174498905965 3.6757120010092 3.2340367246741 3.5959174861346 6.0513471924423 3.8202163226163 3.6203761495244 3.5878897501213 3.4559245318007 3.5045217985341 3.6470832902037 3.7393907679694 3.7680757071897 4.0689606942229 4.0341990017576 4.8466342197938 3.6901049919449 3.7381257257316 3.8161527175256 3.3509809433999 3.6876955142733 3.5949074188662 3.3705956302844 3.3325018709126 3.6318553067802 3.6814402393893 3.8464567801104 3.3187744501008 3.8883087208585 3.6201990495931 3.7200408198807 3.9837491198107 3.7723120953079 3.7864816428284 3.5739465545771 3.6485134280583 3.8747117175913 3.7154885310813 3.6787501330561 3.5169176231113 3.7380670407993 3.2582211731266 3.8023109464153 3.4627844256585 3.4431073080765 3.7786357227805 3.435634247727 3.4405856405277 3.7255313453092 3.8235795425479 3.8467329985621 3.9206019347032 3.662750290006 4.0882231067263 3.9467898348638 3.977372888846 3.8214898959131 3.2681651734513 3.8085980670092 3.7343249925057 3.2932622276093 3.5835728800289 4.1572495081312 3.2584738549336 3.3152391246188 3.9600508796293 3.3912591916633 3.9500889822745 4.4810471182797 4.3208411067949 4.1209845268283 4.1290521282225 4.1214581571177 3.9548951486148 3.6068482059003 4.2024447290279 3.5447293746773 4.0120496893157 3.5443262814837 3.8648343451573 5.3844068944389 3.5534894196962 4.1891742212044 3.773561729113 6.0688904777742 3.9205733245961 3.9213651580996 4.0714545011192 3.8343181524753 3.4754978085315 4.0604628428715 3.503712554165 3.7300357082361 4.085705238085 5.8018724138374 4.0548560328976 6.0608114352323 3.8600858801076 3.9281490623973 3.4538396674672 3.3361113754696 3.6642998087304 4.3140076512528 4.4465405876926 4.1092135937833 4.0890534458312 3.2056161425938 3.5260165414495 3.6995478762948 6.2319505697289 4.1049561215076 3.8901889549142 3.9665807323775 3.9506807056709 4.1185060167464 3.5071726739457 3.9838352523771 3.6227320182863 3.4305945641403 3.5945698350371 3.3558448129 3.6368623658054 5.5555531308409 3.8330856209479 4.1609279651023 4.2585849058367 4.1278961161928 4.1680166721899 4.4103855484908 4.6133825330365 5.0092404426497 4.3519507570853 3.9572254400523 4.3191533592717 5.5325556055685 5.0641236455094 5.3260517444591 4.6699792089996 5.1556794451418 5.7853951773633 4.8200491210812 4.4637680862725 4.3193867504019 4.1803478862892 4.2559092147491 4.2281037867864 3.8673921044952 4.0980163752522 4.2268997689828 4.2355344344325 3.7612487607977 3.937457380039 4.3017103448331 4.4258425787817 4.4611219884009 4.5653377680894 4.4821141568985 4.5934026503264 4.5882244277155 
SCALARS 40.00_0.82 double 1
LOOKUP_TABLE default