# vtk DataFile Version 3.0
d-2__ created by libgimli-v1.0.12
ASCII
DATASET UNSTRUCTURED_GRID
POINTS 1303 double
5.625	0	0
5.511811217919	-0.146388704457	0
5.676386535709	-0.13519637448	0
0.25	0	0
0.175228502521	-0.179050409113	0
0.326009290428	-0.144330725415	0
0.375	0	0
0.990207725992	-0.114957291708	0
0.841075314552	-0.137634199948	0
0.926498288371	-0.349340723189	0
-0.001071200562	-0.386156929004	0
-0.003317641763	-0.130454088023	0
-0.192720422374	-0.216308252768	0
1.25	0	0
1.175215748534	-0.200562384647	0
1.341115762259	-0.128605193971	0
1.375	0	0
2.25	0	0
2.168494514827	-0.19848886597	0
2.338304607341	-0.128945294536	0
2.375	0	0
1.911268305082	-0.334701951691	0
1.986191885908	-0.110806668109	0
1.838390258011	-0.128853462534	0
1.75	0	0
1.670105949089	-0.197137117999	0
2.986685504441	-0.10889534818	0
2.838723720416	-0.127406828384	0
2.912854264006	-0.329775839393	0
0.75	0	0
0.664572693147	-0.222613872306	0
3.25	0	0
3.168798596028	-0.193682232199	0
3.337828500197	-0.125181208794	0
2.875	0	0
2.75	0	0
4.25	0	0
4.161099470995	-0.193412132741	0
4.332718836325	-0.127723897736	0
3.83511440706	-0.12403687807	0
3.875	0	0
3.75	0	0
3.901908238995	-0.321557035295	0
3.983050435256	-0.106770030737	0
3.665527023987	-0.190866765849	0
5.25	0	0
5.164693411436	-0.21656556845	0
5.338419985376	-0.147288917438	0
4.834321952324	-0.135810575609	0
4.875	0	0
4.75	0	0
6.25	0	0
6.178399669611	-0.137425451145	0
6.356205370496	-0.193853696818	0
5.817814980918	-0.161175429964	0
5.875	0	0
5.75	0	0
6.611939839541	-0.314381537706	0
6.522886280605	-0.104721203126	0
6.75	0	0
6.669178832877	-0.119404962711	0
6.836073690852	-0.177498311423	0
5.39059629209	-0.37339102075	0
4.660917359886	-0.204007052252	0
4.902096977384	-0.356327271651	0
14.897042426984	-0.319128540459	0
14.98121339776	-0.105010975498	0
14.832720105416	-0.123004000492	0
2.669265824618	-0.196872625129	0
7.656019919505	-0.144451020927	0
7.75	0	0
7.625	0	0
6.625	0	0
8.75	0	0
8.672937461928	-0.164309120831	0
8.834289374889	-0.109279841483	0
8.206809119751	-0.294811800109	0
8.187056112549	-0.110869448227	0
8.024316200302	-0.129362764133	0
7.157390904024	-0.111206354394	0
7.25	0	0
7.125	0	0
8.25	0	0
8.125	0	0
9.75	0	0
9.651145885459	-0.185384966231	0
9.827054067621	-0.122428024454	0
9.381816956327	-0.305807769915	0
9.476753337472	-0.101567493772	0
9.327490061855	-0.116748040282	0
10.75	0	0
10.655660803951	-0.196164841752	0
10.830485405183	-0.127989131147	0
10.386748323888	-0.329675548046	0
10.478464938155	-0.108955040137	0
10.328560245085	-0.126395562242	0
9.25	0	0
9.375	0	0
10.25	0	0
10.15270392044	-0.192469144253	0
8.328856990144	-0.128933011689	0
8.375	0	0
9.153857570119	-0.175508527296	0
11.75	0	0
11.660624577581	-0.201812344528	0
11.833823570609	-0.131890823957	0
11.395399221028	-0.337817920558	0
11.481219500696	-0.111845889235	0
11.331881500183	-0.129806070652	0
12.75	0	0
12.669299873111	-0.199190799603	0
12.839534650452	-0.128328673855	0
12.40897914742	-0.340185307353	0
12.485654611126	-0.112072117633	0
12.336727606385	-0.131188239877	0
11.875	0	0
12.25	0	0
12.164627546098	-0.202605127067	0
13.75	0	0
13.669268468008	-0.186168180444	0
13.837322273199	-0.120178339978	0
13.416957459915	-0.319650485848	0
13.487510959619	-0.105281058988	0
13.34010202956	-0.123833443479	0
14.75	0	0
14.66080663422	-0.189613659871	0
14.399926333663	-0.319306441484	0
14.4823067449	-0.105599641009	0
14.334114343934	-0.12250571155	0
14.875	0	0
15.25	0	0
15.158227025815	-0.185762723401	0
15.330441202311	-0.11956675178	0
13.875	0	0
14.25	0	0
14.163960939829	-0.186365139356	0
12.875	0	0
13.25	0	0
13.171786689458	-0.193064330135	0
10.875	0	0
11.25	0	0
11.158129238503	-0.198418008741	0
7.31587636932	-0.171642077952	0
15.3902841013	-0.308450173235	0
15.478958243586	-0.102394874489	0
-0.125	0	0
0.125	0	0
0	0	0
-1	0	0
-0.706889652808	-0.331752981492	0
-0.5	0	0
1.125	0	0
1	0	0
1.625	0	0
2.125	0	0
2	0	0
1.5	0	0
1.488007132967	-0.109900770852	0
0.5	0	0
0.474245721096	-0.130043839003	0
0.625	0	0
3.125	0	0
3	0	0
3.625	0	0
4.125	0	0
4	0	0
3.5	0	0
3.485533411273	-0.107014956798	0
5.67736414417	-0.368119689468	0
5.125	0	0
5	0	0
4.98353533542	-0.118243061674	0
6.125	0	0
6	0	0
6.009467825362	-0.139471566496	0
6.5	0	0
4.625	0	0
5.5	0	0
4.5	0	0
4.481603306259	-0.111052305129	0
2.5	0	0
2.486482293556	-0.110456056597	0
2.625	0	0
7.828740664136	-0.157959666613	0
7.5	0	0
7.497789303332	-0.098817221798	0
8.625	0	0
8.5	0	0
8.493725508365	-0.094448160765	0
8	0	0
10.625	0	0
9.625	0	0
9.5	0	0
9.125	0	0
10.5	0	0
10	0	0
9.976983002093	-0.106037154081	0
10.125	0	0
9	0	0
8.980258705317	-0.095443922293	0
12.625	0	0
11.625	0	0
11.5	0	0
13.625	0	0
12.5	0	0
12	0	0
11.983083448534	-0.113269018621	0
12.125	0	0
15.125	0	0
13.5	0	0
13.125	0	0
14.625	0	0
14.5	0	0
15	0	0
11.125	0	0
14	0	0
13.984735949845	-0.103165953766	0
14.125	0	0
13	0	0
12.987740386932	-0.109238757727	0
11	0	0
10.980033547654	-0.110118532971	0
7	0	0
7.012790729926	-0.096165366155	0
15.625	0	0
15.653391866104	-0.184257106926	0
15.75	0	0
16.25	0	0
16.151956269841	-0.190746813766	0
16.328162175541	-0.125534698515	0
15.827345422636	-0.12109528269	0
15.881623705918	-0.315197408181	0
15.9768075603	-0.104841845177	0
17.25	0	0
17.155473725888	-0.187015736188	0
17.328334720487	-0.12053442359	0
17.375	0	0
16.97978281674	-0.105790715925	0
16.830585534618	-0.124270763258	0
16.892220832712	-0.321708894118	0
16.75	0	0
16.655725821363	-0.19281499559	0
18.25	0	0
18.144056513649	-0.199584109463	0
18.322695877645	-0.133173012767	0
18.375	0	0
19.25	0	0
19.156955168382	-0.212194778097	0
19.332395147696	-0.137501625504	0
19.375	0	0
18.978107771567	-0.118463258117	0
18.827251646435	-0.137822523984	0
18.884674261801	-0.359498065923	0
18.75	0	0
18.648603260315	-0.210400354993	0
17.973004229039	-0.108213471414	0
17.823362138939	-0.124125311933	0
17.87020700187	-0.324156104502	0
17.75	0	0
17.64837652944	-0.187413016584	0
20.25	0	0
20.167288289523	-0.206556633625	0
20.33799343326	-0.133667464393	0
20.375	0	0
21.25	0	0
21.172020853715	-0.201327641466	0
21.340729826518	-0.130206344264	0
20.875	0	0
20.75	0	0
20.839555732676	-0.132066213667	0
20.987710400762	-0.112937783384	0
20.915843633601	-0.342386775443	0
20.669904108595	-0.203936882105	0
22.25	0	0
22.168893714495	-0.194483818359	0
22.337089427477	-0.126591453251	0
21.875	0	0
21.75	0	0
21.840184239699	-0.127666317168	0
23.25	0	0
23.162361450448	-0.215073727418	0
23.335945395372	-0.148199257458	0
22.875	0	0
22.75	0	0
22.83504078106	-0.133126573368	0
27.412614995451	-0.337768305098	0
27.406417478875	-0.760610856776	0
27.663031754041	-0.476449210851	0
23.674319496044	-0.139602731619	0
23.75	0	0
23.625	0	0
22.902876337082	-0.348446434986	0
22.664415839639	-0.19979598046	0
21.987454968006	-0.109075483352	0
21.916658702332	-0.330379709848	0
21.67241042914	-0.19774510361	0
19.984830323221	-0.115851903278	0
19.835879034474	-0.135573032779	0
19.906686139011	-0.351521653308	0
19.75	0	0
19.663378765328	-0.209646647928	0
24.75	0	0
24.672305039303	-0.121865624882	0
24.84054616259	-0.178479133746	0
24.25	0	0
24.125	0	0
24.179559510218	-0.145425217914	0
25.656694723316	-0.141492417978	0
25.75	0	0
25.625	0	0
25.25	0	0
25.125	0	0
25.159224348757	-0.109007087058	0
22.647257188685	-0.476376729768	0
22.872248033711	-0.780455516934	0
25.317652966423	-0.167196322239	0
31.908525182248	-0.237434634112	0
32.248547795208	-0.367887731521	0
32.025	0	0
26.398062594932	-0.327144710524	0
26.335089901602	-0.124890632532	0
26.169730315141	-0.188549564961	0
26.75	0	0
26.662500836065	-0.197477656933	0
26.835401004001	-0.129534360312	0
26.375	0	0
26.25	0	0
27.486869476066	-0.111474770432	0
27.338367230812	-0.130187170762	0
23.816158307302	-0.168335740772	0
23.875	0	0
24.625	0	0
27.75	0	0
27.67023663024	-0.198727549038	0
27.839431305592	-0.128541986375	0
27.375	0	0
27.25	0	0
28.75	0	0
28.666013303123	-0.192953151514	0
28.835335299513	-0.125393524551	0
28.875	0	0
28.41074998604	-0.32692743598	0
28.485854239984	-0.108071323096	0
28.338261561589	-0.126341817439	0
28.25	0	0
28.169650699531	-0.195402875109	0
29.75	0	0
29.656991685033	-0.201213204108	0
29.830700495316	-0.13323291855	0
29.875	0	0
30.75	0	0
30.665605116896	-0.213760177502	0
30.837855425721	-0.139272404211	0
30.875	0	0
30.987248292653	-0.119871959545	0
30.911614165903	-0.362389547989	0
31.25	0	0
31.174363802618	-0.217041176186	0
31.346460135447	-0.143418487957	0
30.400599561582	-0.360265197586	0
30.483280501431	-0.118794220148	0
30.3336351656	-0.137924489201	0
30.25	0	0
30.159375273254	-0.21004086356	0
29.392934647931	-0.331414044449	0
29.48031118177	-0.110263057575	0
29.331777210358	-0.127344913482	0
29.25	0	0
29.160548153072	-0.194064979946	0
27.167334579456	-0.200440763045	0
24.359650796728	-0.20304719459	0
-0.25	0	0
-0.404335947278	-0.221464959739	0
16.125	0	0
16	0	0
17.125	0	0
17	0	0
16.5	0	0
16.478267427857	-0.108008273171	0
16.625	0	0
18.125	0	0
18	0	0
19.125	0	0
19	0	0
18.5	0	0
18.473681471998	-0.115768873419	0
18.625	0	0
17.5	0	0
17.47687846862	-0.103462148239	0
17.625	0	0
20.125	0	0
20	0	0
21.125	0	0
21	0	0
20.5	0	0
20.486446843971	-0.114298370976	0
20.625	0	0
22.125	0	0
22	0	0
23.125	0	0
23	0	0
22.983281399654	-0.116385827149	0
23.5	0	0
23.509214189908	-0.149359691049	0
22.625	0	0
22.5	0	0
22.48467632496	-0.1093719097	0
21.5	0	0
21.488472844532	-0.111208801785	0
21.625	0	0
19.5	0	0
19.482219828947	-0.117572233456	0
19.625	0	0
24.5	0	0
24.525433875838	-0.108080714825	0
25.824234283709	-0.149177038136	0
25.5	0	0
25.498573523516	-0.096586408813	0
25	0	0
25.014769107289	-0.095147895568	0
21.919931345447	-0.741308582321	0
22.160361550711	-0.463896476278	0
26.625	0	0
26.5	0	0
26.482631880244	-0.108512805864	0
27.625	0	0
27.5	0	0
27	0	0
26.984612185119	-0.111680714924	0
27.125	0	0
26.125	0	0
26	0	0
25.990349817319	-0.10847866492	0
28.125	0	0
28.625	0	0
28.5	0	0
30.625	0	0
29.625	0	0
29.5	0	0
29	0	0
28.983089608831	-0.107750428826	0
29.125	0	0
30.125	0	0
30.5	0	0
31.63125	0	0
31.5	0	0
31.494696987447	-0.123712578064	0
23.671261205816	-0.380102168636	0
31	0	0
31.125	0	0
30	0	0
29.980228243528	-0.115525062547	0
28	0	0
[...]
CELL_DATA 2263
SCALARS 1000.00_1.80 double 1
LOOKUP_TABLE default
8.0682472479273 6.503909053511 6.6022288074135 7.4374533677004 6.1577159369478 7.8345521193733 7.9460544235737 8.5603259233567 8.5347126288446 8.6628797419297 8.6540382917141 7.9484446715673 7.256162693636 7.4929838346032 8.1524512530411 8.763295661303 7.1561822990198 7.3611469699815 7.0754779044317 8.2176141449341 8.4809576328869 7.6573210329631 7.8693221455024 7.3087493127179 6.9896708641124 8.2087545655754 7.9606170211462 8.2703756715699 8.4088293964059 8.6665273598339 8.2359679418366 8.9535513959991 6.9222143230184 8.8475702926033 8.9674398074652 9.5520614226038 8.8776157696959 9.8711898301916 8.4400983735702 9.5807783254248 9.5399135214235 8.2814909413558 9.4683283368426 8.9846933314661 8.3626522293739 8.8794538343787 8.8253932675144 7.9870095924128 9.420163662206 8.8138979988098 10.674138881835 9.0210472855288 9.0647770732646 9.0154909497769 9.3276832001761 8.8338438252107 8.4462780225817 9.0191765677076 9.3044270347656 8.11675789431 8.6738943508895 9.6031822701702 8.6702150158259 9.6668664125598 8.3025283540081 6.1384341600325 6.2423069718937 5.7109356430893 7.7157110766137 7.5921903346521 8.6064619910236 8.7937487240195 8.4203223365838 8.6399352264996 6.9216056207531 6.3931346424463 7.6642208870693 7.9523685902265 7.0320968006949 7.9823930778646 7.1520505962913 8.6032812050598 7.9693512461701 8.382401527002 7.91680861821 7.9332299116573 7.098814382327 8.3983188274534 8.1985333789897 8.0527619600084 8.6378029031204 8.2096400464755 8.6093340309204 7.1305549714919 8.9586229719467 9.2845213751997 8.9247344574239 9.2283240873224 8.9876934560536 8.9831918859854 9.6118192173169 9.1400895390779 8.5313967319515 9.7234233237998 9.5937875733675 9.4021357875652 8.7901917374132 9.8015802872103 7.9074135171275 9.1078370333293 9.0157837398782 8.6461069613495 10.061885986221 10.871525105797 8.6470187188964 9.1403433134825 8.4870185002622 9.5779176925464 8.8274154801256 8.772437398776 9.4600073068236 9.3984057768409 8.3878028515489 9.3216834185328 9.2464158132174 9.0337917102214 8.743747853707 8.4068263425249 9.6589955383721 9.1052013769145 9.4331266604329 8.5350035087785 8.4639705278957 9.5738864204579 9.7247457445561 7.4464369954519 7.395629047366 9.4727532768962 9.6737941106121 8.6129921036056 8.495837503036 8.4581124050394 9.0743237892897 10.188866407174 10.179011319194 7.8249734250999 9.3866457050577 8.8002061473493 9.5121279616711 8.8596118584786 8.6536075354333 8.3692629742788 8.4876990700237 6.6744259302773 8.0144391703962 8.3981792827474 8.4985591407416 8.6237686160037 8.5245766872858 9.4997612513836 9.104131156916 8.6443252363716 7.4811907605321 8.8910131719097 8.6539759877149 7.4126354938409 8.6510115229337 6.3369547667684 7.901755717911 7.374889590535 8.0042915738128 7.3162862625648 7.9136916207134 8.5632498576634 8.0911977263759 7.8469708405158 7.2894648468715 8.5655777336651 8.6056861486341 8.2698312984863 8.1696887979389 8.1136629458432 8.0692638733909 7.4756203839087 7.4872257866791 7.357703185199 6.8328887039354 7.4252216219838 7.4484243628403 8.3139668487486 8.4616077622361 7.2546820339628 7.5065556229236 5.9550290462037 9.2722662307984 8.9556791324699 9.2022327061775 9.6782384301822 9.8172238733045 9.7094409891716 8.1382994590614 9.3201054181187 9.0877194325787 7.8680388846762 7.6129676951963 9.2929059199622 8.6233059616186 9.3714479181333 10.127462890481 7.8920411571202 8.4390448432407 10.211551441061 10.301567381942 8.8604824425803 8.8834481549636 7.9465641900823 8.6512153930185 8.2261272796285 8.5737857278187 8.8412808641555 8.4946501972626 8.2357215192636 9.8386590264896 9.4035560294326 8.3124535221778 9.0492787474274 8.2984853123935 8.7688998730521 9.0013111628657 8.8130440594866 7.4858480199392 7.5137791176155 7.7997024187972 7.7779377810879 7.5930014855793 7.3246574702187 8.2696873965072 8.5766380145857 8.1227418899397 8.5250408633324 7.496140344518 8.4199801727557 8.6768985130194 8.2515908835026 7.4986147196843 7.5153170416654 7.2704080328198 6.8722304614908 7.8692249659335 7.2276271390732 8.5498314078421 7.7298041873739 6.9177756931349 8.0986595767472 8.5689641143867 7.6593752252112 8.4364174082671 6.8146222079251 8.9753707847515 6.3082455706546 7.4703442846426 6.8297319948979 7.6408143811227 8.2536774611917 8.7154817587704 8.5654009169322 8.5148549454683 8.813937025012 7.0148178664844 7.5708905776484 7.7963817294536 7.2694869961624 8.2607113708303 8.9602679322791 7.0624779789814 7.5742470229397 8.2764435940523 8.3218647546096 7.859207095056 7.3271250137761 7.1005603690346 7.9593071902084 8.0501691909213 7.9017371634204 8.4494381592443 8.5457482774498 8.5153284107096 8.0110377768835 9.1382573160217 9.1564302695542 8.7121213116703 8.9843143037041 9.1956757470921 9.4473496316867 9.9498619027024 9.6510114043093 9.5282486199208 9.4021529857398 9.7899724683728 8.7002256167587 8.5477470633008 9.1307563446387 9.213809239249 8.122313269832 8.4375873095943 10.395554502647 9.7504478754237 9.1225202309991 9.2610520038731 9.5088731482601 8.6809088960993 8.7312098675673 8.5490773241499 9.4917608634987 9.3495126264047 8.4410490537341 9.1294196047588 9.0213921275818 8.8108783371152 9.1836881624769 9.6996235502756 5.8712850432565 9.2188809409193 9.9147612100237 8.9914517483454 9.6504219928816 8.9187545159651 8.7891528680006 9.6889242989254 9.6300553539684 7.8348336870683 7.5733964585077 9.1338601462702 9.7700943615434 8.0522241982073 9.0654578193901 9.4127857938496 8.462207772118 10.251544601959 10.178842486523 8.1102331809345 8.0728628283516 9.9942741564098 8.90027726413 8.8516905590583 8.9638424929489 8.5755971015328 8.3042043993583 7.873308302142 7.8186276838481 8.6984717127547 8.5911551577517 8.3222672631198 8.8773540853642 9.1984608315238 9.6986672476863 8.9629056907292 8.9535481854409 8.7783183895542 8.612446857754 8.2676631551828 8.8879114780679 7.6526700510637 7.3013866824056 8.4219588857937 7.8740645249663 7.6632593621087 8.1050252035201 8.5372847244011 8.6786457287998 8.0869778694559 8.4431329400012 8.3215416962153 7.9022827515499 7.4968451702621 7.4064712225215 7.0821442897714 6.7792303861467 7.5868278420517 7.5030925986022 8.6037365048582 8.4239838215126 7.2870624732747 7.4607119705185 7.8687351295846 8.0228356403625 6.5899164859602 6.0482821636761 6.7337031981718 6.2192180972077 6.8237216695784 7.4580507692257 7.3717710954577 8.2042858603574 8.719893190037 7.4200052263958 7.5311507203643 8.0996857640112 6.848152940781 6.6948930067029 7.2682584976492 8.9616545736047 7.4424154303516 8.2587958879692 7.745653603964 7.2313049298555 8.0292003967132 7.750388360561 8.1503199977402 7.0064104283935 8.2583754455701 9.0345159340735 8.3745389105923 5.9304455301604 7.6812610921084 8.6036948755866 8.6121108143257 8.4712934625889 9.0851051635648 8.7427388132973 9.1983865903152 10.037885581904 8.5805730711119 8.7659601121503 8.3648520800745 9.0068034528717 9.5899079604615 8.4752984331863 8.7373588814226 9.5390663970976 9.0353587588272 8.8341473159914 8.5994334024906 7.9585403573873 10.738682613414 8.9883194426184 8.9222052658054 8.9576026685449 8.8130958513218 8.7674178949805 9.2381267398956 8.3936171437359 9.331501361443 10.081585124706 9.1672215748456 9.2654221155745 8.5550137740326 8.3178560470284 9.5056537416425 9.4511439668149 7.1517843909999 8.8128903746526 7.9838731503368 9.2750546825671 8.4688493899878 9.4885242873612 9.7735876839736 7.4799478396672 9.0469673817383 9.3950558520854 8.9216038523569 8.2048098617336 8.7220543682206 9.0873053297482 7.9975898179019 7.4651108639001 9.265668804966 8.8153934076483 9.1742207257454 7.8359093181094 7.7405587886993 8.9137370917471 9.7422829209314 9.8966104360025 8.1795779537771 8.3427096951375 8.6320551327849 7.9423586783278 8.4687590481408 8.7919664467667 8.6360320357944 8.7946519277289 8.3077505404469 7.9507520643262 8.7021404432774 9.4404924240436 8.4052924433185 8.7014357461493 7.5134982667314 7.3178234207282 8.1298662511134 7.2218813030853 8.1356750015136 7.951617150427 8.0849909344792 8.7355417417605 7.166274214295 7.9824704994007 8.2466574062543 7.7419188027928 7.405098727475 7.9014061753812 8.4408932185722 7.1722380429789 7.4496356628128 6.7614357688937 7.4027060155166 6.4697421980083 8.1969265763224 7.8312940669244 8.3240145293907 8.5249991822903 7.8401514161628 7.2511734978799 8.128943684458 7.5184391622046 5.8087196086258 5.7973510114686 6.9606044967774 6.575348277294 6.5383759287535 6.7050477090211 7.892926143099 8.0767765807182 8.4389735725975 8.534974729609 8.5499600111909 8.75759665119 7.2654019262213 7.4632099797663 7.2882539416343 7.3391986134958 8.4272606816439 8.9529227582904 7.1280812248331 7.304710739209 6.814566348844 8.3081960888898 8.3136733231923 7.5665224663943 6.7166309440139 7.1142236434609 7.6194997438508 7.887163485114 7.8462401883592 8.5173994742866 8.0101676098587 8.0707955704624 9.2142725210636 9.1102044322284 8.8804725725824 8.728411238378 7.4699033223075 9.1109934989209 9.3818451517609 9.9639539615042 9.4161558814096 9.5909121744226 9.3441793385945 9.6806257194271 8.3443136136079 8.3371086147564 8.7802434765215 8.8960781667561 8.109390356596 8.2886634607737 9.5747272475 10.265383781703 9.1480433658215 9.1344809863751 8.764141314466 8.7202087574099 8.2057746102124 8.3770225174002 9.283577796389 9.2738172763156 8.8444418510366 8.9923595716231 8.7596070391166 8.6901383855609 8.3215826359112 9.8995781779176 9.2466785268937 9.9915469381279 9.1280165825714 9.457201599904 8.7285659016636 8.5990037617272 9.5502475611296 9.7477968597463 7.3933487604755 7.4378362278842 9.2126174186633 9.7348063379244 8.2954812475255 8.8467914432443 8.6503179731504 8.6872904447026 9.8183481121294 10.138928902179 7.8234807951598 7.9265872192042 8.9596877860619 9.1535737646213 8.6942927053501 8.9376312612684 8.0656145739938 8.308357919092 6.6259734731358 7.8635845823843 8.1408232311346 8.524594992769 8.4131891074896 8.7437087273571 9.2163498870162 9.3969241504626 6.973626584128 8.8298372083316 8.3700424148446 8.6395402970378 7.3683424092763 8.6764383511033 7.6477171807219 7.2943537147322 7.5866742259372 7.9333421370693 7.7310188063605 8.0093874628786 8.4286607419892 8.6268655723693 8.1068782845052 8.3231710249831 7.8793782399943 7.9820790043386 7.3606979991054 7.4614136470044 6.8484323036098 6.7693577329147 7.3852297175482 7.4665070967196 8.293860966356 8.4163803520978 7.1897668440032 7.3441040629291 7.2131157382073 7.612589393441 5.9081018926655 8.2653986349319 7.3982518827756 8.3838528216412 8.1487572531438 7.0758653600522 7.7062112045499 8.0586986733111 6.8584603528651 6.8081877702626 7.7648572622642 8.3846074745783 7.6469044676831 7.0705396358587 7.1260293214331 6.8498441687378 8.9338771754842 8.7114591732593 8.1429896630566 9.0492933615975 7.8575632210947 9.8002297072197 7.4740584256878 8.9045493864702 8.9875714831331 9.243014915021 7.5907287447412 7.8934652862464 7.7951802890098 8.7855974440113 9.0418866343103 9.2790784934949 7.3312553606231 8.8058182811607 8.229660410299 9.2173713180168 8.9998384423222 9.2736290600523 8.521841340236 8.7137540338106 7.4146308510621 7.2591131907774 7.7262603781286 8.4360767017052 7.9080345442987 9.3939783898567 7.5676690979776 8.4647220154865 8.6163700219027 8.5236623928369 7.8553872339523 8.0347585037905 7.871024524857 8.5259396644982 8.4631769971656 9.1169147824121 7.6189252394669 8.3823930255942 8.323376559509 8.7754301804606 8.1301901690895 8.6334289758944 7.3864338504931 8.8793594549844 7.6362245691643 9.039138164923 8.7325886750683 7.619561819056 8.099146129122 9.0646526363718 6.8696828474648 9.2537709790592 8.3831604330398 9.6663828046375 7.0789168082748 7.3609431094484 8.2376810338118 8.5516973932422 8.0898956255737 8.0557090506126 7.6195888307775 8.6571945971245 7.547899580508 8.6862143488149 8.6290715385242 7.0244153955089 7.9498694462848 5.3471972784178 7.1001181497297 6.768743839115 6.1961620808992 7.4784368382255 6.7357469660519 7.7686832034953 7.7061114360531 8.7148009248882 6.3314089382951 8.4332783950744 8.7440260603197 7.2499262639853 8.436028628042 8.1915367138583 8.6541880207114 7.9215071901408 8.4968679054773 7.9066206146492 6.9091784785315 8.4669800391384 8.0232368382913 7.6205499330886 7.272447681182 7.6251787462691 7.1456296525652 7.2030483813597 6.8372145705366 6.7823019405229 6.4944313664832 6.3266004473574 6.9080540575798 7.2937755072553 7.535737431091 8.0391937116187 7.7187038306996 8.4931485822164 6.9115920306752 7.1636514629393 5.659912997464 5.9642150751056 7.133598353943 6.2496773011618 6.1402791556284 7.2579057675379 6.0046508547022 6.3288690751765 6.5790781419874 6.8580383877376 5.9950322395252 6.4871422729627 6.1974832788491 8.1408228078489 6.2797603283457 7.5830136871375 7.7133533626381 6.9576373953853 7.0477389729183 6.1073063298196 6.9529337582599 6.8699637324211 8.848328618393 6.6791513581134 6.5920959013608 7.469494751179 7.4994953483171 8.4044775464763 7.1125989836627 7.1542029490198 8.9229303023621 5.4108404899866 8.1279806184535 6.6531276893423 7.8418284872024 7.1634135999764 6.9820070523427 7.2162272658424 7.4832384464173 6.999172927773 8.1694832628759 7.2681593965843 6.5237400016713 8.7766887720355 7.9786789030696 8.3742010805516 8.2756655923902 8.7142166502192 7.569154822818 8.6893264250745 7.7428245911105 8.5058338516631 7.5700475139507 8.3948962583526 7.4662284953814 8.5689089206661 8.2469998386889 9.0618052844149 7.6460449931106 9.0021893879273 8.6423821024573 8.5355919071684 8.2606070219643 7.0440974803264 8.0639491241147 8.6474368995025 8.0668770794919 7.7077006431012 7.0284256788857 5.1453675215992 7.4220029825382 6.4025066415114 7.833475664781 7.0607949276046 8.6137522114228 7.4151981572296 8.4535409191772 9.105146557044 7.2877769107954 7.7711952720869 8.2814503175754 7.5453888675956 8.1655978869967 7.2837476888888 7.3037318733857 8.3779567193555 7.6112298212969 7.8390417917884 6.4673831367296 8.4789828404875 7.6390259759586 9.0848043689974 7.3379953764927 7.6803815077925 7.6118354386551 8.2075488564031 7.5221513988481 7.1986047602266 8.3591364952609 7.8676439714104 6.7801162448821 5.7342149285487 7.3269474381399 8.7449441538628 8.0720284794025 6.904823253993 7.1028165210411 7.2828164685264 8.8483627812416 8.2711797709268 5.4931899934626 7.569980038987 7.3106915751517 5.6195650535372 7.0865263443916 7.7030592934039 5.9562387114837 6.9067857412578 7.4180025073927 7.1572360198167 6.4448326769135 7.2277435246302 6.8920690988879 7.6413633096573 7.0398137986178 7.9899434248858 7.4585913291947 7.0424458101222 6.6572960831221 7.1906189654212 8.4363627572106 8.717517135716 7.0602614614926 6.7628097267071 6.4282763174972 7.795279378673 5.5568633181318 7.5462925865261 7.7402592044908 6.4116121018019 5.9829292285127 6.4335789317156 5.3160711189958 5.4561089240391 8.0574000754647 6.3886993497234 8.3206630863398 6.744023601959 6.2650203353748 6.4019974550808 7.8322402002197 7.0353599011012 7.4825884253213 8.3030812366444 7.3014020830334 6.4572581997131 7.848308693821 6.9058461901205 5.5376311346156 5.9688405688238 6.3221968923105 7.4772383956882 5.8830771735618 7.879629311016 7.9675834798747 7.3322023310123 7.7972647899948 8.4480426755955 7.3978089544296 5.6323120287944 7.1881558357315 7.6872789202174 5.2486040734322 8.3212926867866 7.0394339602685 6.8089453321717 8.4394624287177 6.0007591944812 8.0691217775385 5.6215667894876 7.8070650002858 6.231925910448 7.5619664004232 5.7706436622825 7.2966545353487 5.6309575821165 8.2723865620339 5.0494335541607 7.6206556451979 7.4912671631605 5.3433290005154 3.9832762660716 6.2275966890495 6.8134225540105 6.8706144310137 5.9060609027759 7.7676673627936 6.1318748605779 8.4251338268064 6.1132466006255 5.7594929562371 7.3630956307365 5.8741833416394 6.8586184806371 5.9051641300084 6.5441383555772 6.6467529230148 6.0989431878484 8.1274691569981 6.3233443025029 7.4121527200282 7.9476198660409 6.6660317523739 5.8450019291974 6.7986089144215 5.0936806126251 7.3823047604451 7.8489266314867 7.1943118521779 7.8940682189982 7.1636983066397 4.7488610043417 7.8067270149928 5.797593434983 7.4395395771403 5.6253248983693 7.8506552359517 5.442397885988 7.298620989911 7.1290438684994 5.6432783917442 6.5698374806806 7.4946328782263 6.9206323587657 6.5861817614098 6.7804638094922 5.8774695595626 6.605508505368 5.9171825662459 6.032776689808 7.3767955680164 5.7937306410124 6.8870391541422 4.6085451201732 7.5556818304509 5.4011732731186 7.1021379457501 7.5407435158054 7.7947292529361 6.9146893918414 8.9156501148356 6.3949718603543 7.2062788400095 6.7510065771637 6.0570336123285 5.1950419979626 6.8465595959161 5.3625686828318 5.0556711367801 5.7420582241556 5.2394812403164 5.6213815205184 5.5996961005986 5.8190232752119 4.2827420971117 5.6040802838251 5.4635479454526 5.5675477294194 6.0423787952384 5.9240319579989 5.0225142256792 5.6987060603549 5.4814698872725 5.6909825454528 5.5038960073232 5.1770249658687 5.6015927264926 6.0515044647754 5.9644006688679 7.2773277779853 6.1543448189376 5.4400382519555 5.5792610064943 5.406005704736 6.197584013507 5.5712572501332 6.9900169283319 7.7285351215956 7.4753032554471 6.9642305794365 5.4062234087728 6.6750504471415 6.2754825616527 7.6016406292281 5.9197811097094 5.3485157223426 7.2875699611291 5.9957082765123 5.1755543946699 6.0974751958014 6.7011675695436 5.4645885183484 5.5072350132429 6.0804404432126 5.5457531665498 4.6058180638665 5.5240017203972 5.1420805035323 5.1853617491752 4.6178291831092 4.6123421234827 5.9404756364915 4.9626353243005 4.3075416216493 4.1067734466718 3.7081497302149 4.3754766382223 4.5704459017275 6.3671059030354 6.7893557114446 6.0553691024564 6.2626957986311 8.1227591962976 5.2220252632534 5.9208996573916 5.7723798917861 7.2536337944119 7.8906331932424 5.3831727341177 5.6576187769122 6.3059479937726 7.4930006506005 5.9577960601043 5.744704558838 7.3291503097576 6.1352710631395 4.9481199587418 5.3529670612282 5.3482041631559 5.1899102224273 4.4469408971636 5.1819152695714 4.5873569801494 5.729355599775 6.0251295232177 6.0035520441576 5.0453075543527 5.9700408820984 5.9588468288796 5.6503639787612 5.0023211212341 5.0647059197155 5.1258236088901 6.1957486237921 5.19955168104 3.909423996378 6.2609780128273 5.6207946957875 4.9373029727768 4.8452542867817 5.2524860530081 4.6284596677473 4.5607811742961 5.7775960869519 6.3745758455826 6.5283203993601 4.6658344251671 4.0194905157111 5.0047823055338 5.8391045889245 5.8582879049749 5.8427051086182 6.1796223213789 5.2884276180846 5.4775003062214 4.8180959730072 4.6465249739691 4.2767489751074 4.6151681243846 5.3740093479542 4.2162515758518 3.8933331790392 4.8703434115016 4.1849939425884 4.468677951026 5.1554815061015 4.5445351834349 5.1566772853344 5.3650298233023 5.868789954214 5.8526015849811 5.1549357454688 5.6054816470025 6.1109016072359 5.0496028873413 3.6232478968648 5.7796219594866 5.7602875581412 5.481048461807 4.6119752544942 5.8267703842751 5.5675923124696 5.5340221400338 5.7628518107665 5.1108060931896 4.5007051587179 5.3137762757775 4.6091397329616 6.3218753690212 6.0954431284075 4.7645950759816 5.5488490560771 4.7086684088488 5.3459913346993 5.8263828337046 6.2800361826904 4.7894992091622 5.0535155751594 3.8588238554435 4.8385463658514 4.5229592155974 6.1745791979284 5.1274929869478 5.5035121611582 4.7597785588086 4.288197899045 5.2928396850633 4.6564847015934 5.3148629046326 4.2188922904388 4.2586698301886 5.8338863854249 4.9334821487083 4.3180338725267 5.721433470844 4.8999153770125 5.6279560144333 4.4314697732084 4.9908313487342 5.0009225176931 4.4401403425375 5.4828384796096 5.111839566535 6.1295710363807 5.322242741597 5.6256519054706 5.5123949554263 5.8778333197553 5.4693678601532 5.5054606113899 5.1468417954139 5.9436447203966 5.3322303291915 4.5823209785827 4.2276376986855 4.6257101540407 4.8155949537876 4.7827753762812 4.8594652850198 4.2051855326943 5.4986435621607 5.7731004260534 3.6907219484527 4.510892135137 5.2092922331814 4.3526400644818 5.5925556308143 4.6935787259074 4.5631320961477 3.8508229781179 4.8862901379427 3.8710731447065 3.9702888982848 4.6387383525433 4.2955370236118 4.7650776525826 5.4384600550445 4.8120025696179 3.9542248653971 4.1558241261754 4.42497820