# vtk DataFile Version 3.0
d-2__ created by libgimli-v1.1.0
ASCII
DATASET UNSTRUCTURED_GRID
POINTS 570 double
14.5	0	0
14.25	0	0
14.386963504964	-0.201738469428	0
22.399299936458	-0.310870122736	0
22.129824335287	-0.229914148082	0
22.126320781198	-0.518791771445	0
8.472303742627	-0.591754876635	0
8.780507935475	-0.76092407121	0
8.82173151259	-0.349253271447	0
18.663262297679	-0.667179415955	0
18.934786529245	-0.453308328646	0
18.636898038907	-0.29588182328	0
4.016904362632	-0.85330676142	0
4.076038737616	-0.331410355179	0
3.713721571226	-0.470767763626	0
1.89953779852	-0.269343012166	0
1.633800503821	-0.203067612233	0
1.644492760828	-0.441295523531	0
4.368408037607	-0.250833874131	0
4.337474161742	-0.544420985055	0
4.67745607622	-0.378433532554	0
1.406172533733	-0.772361039307	0
1.913288206557	-1.218576310882	0
1.90687689783	-0.651895683444	0
2.5	0	0
2.25	0	0
2.347047126858	-0.185539804102	0
1.374000926997	-0.300418771701	0
1.25	0	0
1.114902662369	-0.201591505098	0
1.067401015567	-0.470108640981	0
5.75	0	0
5.699780065382	-0.324747799653	0
5.924584257371	-0.172748359932	0
0.883560935405	-0.231136840652	0
1	0	0
9	0	0
9.117836368049	-0.253904480787	0
2.625577516194	-0.346770599322	0
17.859079774019	-0.943547525024	0
17.535029634209	-1.703182852412	0
18.338018094476	-1.366069799339	0
19.932263871771	-0.826489183604	0
19.881635677668	-0.346204516721	0
19.622287080959	-0.573770479943	0
1.5	0	0
1.75	0	0
23.25	0	0
23	0	0
23.109690227386	-0.220340974338	0
2.75	0	0
2.142562771237	-0.172460438312	0
2	0	0
23.332392704446	-0.202507275941	0
23.5	0	0
19	0	0
18.75	0	0
18.888143078348	-0.195773419804	0
2.90152418742	-0.185685383897	0
7.612175045312	-0.180627982114	0
7.527150943175	-0.401430797998	0
7.881917737402	-0.30462800112	0
25.630635194756	-0.512020961038	0
25.243766894324	-0.80097755811	0
25.758031115142	-0.952821630144	0
3	0	0
28.84859809239	-0.201276387394	0
29	0	0
28.75	0	0
4	0	0
3.835807353334	-0.199536243303	0
3.106904732949	-0.178783649348	0
29.25	0	0
29.092446172194	-0.305987136665	0
13.5	0	0
13.667851890428	-0.185102765244	0
13.75	0	0
3.75	0	0
14.407363653886	-0.441423674912	0
14.125469935998	-0.279652141152	0
4.25	0	0
5.061980176718	-0.407989246181	0
5.335512032876	-0.269401530321	0
5.113979852892	-0.173834924157	0
11.882046000841	-0.812345557852	0
12.478640631525	-1.146569360669	0
12.244190771573	-0.565936619511	0
3.633270844505	-0.195395238442	0
14	0	0
18.378272976509	-0.514977451159	0
5.5	0	0
9.619519097921	-1.16461851757	0
10.030576753886	-1.587265312651	0
9.961661342999	-1.070235523667	0
5.25	0	0
5	0	0
13.157975569138	-0.830425793913	0
13.83833027638	-1.238601004239	0
13.671302359608	-0.710707966059	0
11.325917093147	-0.8366783502	0
11.612143285947	-0.506264798476	0
6	0	0
7	0	0
6.83842404292	-0.188923754932	0
7.11236984822	-0.391746146843	0
6.631875629497	-0.169178192832	0
6.75	0	0
3.21002197083	-0.595267231049	0
3.445510026908	-0.608065324465	0
3.362318141622	-0.306501255187	0
6.120159502895	-0.164221934939	0
4.538525595924	-0.906226152762	0
13.233775457127	-1.737244787017	0
4.5	0	0
16.138065841822	-0.472802517973	0
16.126746690205	-0.221608117926	0
15.859319180798	-0.326402762318	0
26.080401003391	-0.227842452866	0
26.25	0	0
26	0	0
3.019224421113	-0.401469974918	0
8.234901607028	-0.35771789179	0
8.518285578354	-0.242327591839	0
8.328777073389	-0.153008859619	0
7.25	0	0
7.400656881666	-0.195280611572	0
7.5	0	0
5.385509485898	-0.709154879541	0
5.948697127931	-0.745234910621	0
8.75	0	0
8.5	0	0
8.25	0	0
2.214249105773	-0.404278959534	0
2.896561357202	-0.792481120253	0
9.25	0	0
4.920911116561	-0.192028847294	0
9.651670336652	-0.200847798694	0
9.849824537955	-0.19917205686	0
9.75	0	0
10.095049354068	-0.315754204277	0
10	0	0
3.25	0	0
6.738406513564	-0.710129601907	0
7.121614580011	-0.943026074581	0
11.345829942703	-0.314788260019	0
11.25	0	0
11.104427225455	-0.188863495516	0
6.052412255932	-0.372556729023	0
6.373371846535	-0.274163514827	0
10.25	0	0
10.380281579003	-0.241092027437	0
10.5	0	0
10.75	0	0
10.909079077441	-0.189427130481	0
11	0	0
6.25	0	0
6.5	0	0
4.75	0	0
3.5	0	0
10.672815698565	-0.318467932684	0
10.772487906066	-0.787092734739	0
11.020900486567	-0.439266778492	0
8	0	0
7.75	0	0
11.5	0	0
11.619450354737	-0.231443672836	0
11.75	0	0
8.139317726831	-0.163309591658	0
12.25	0	0
12.158949464947	-0.235415698299	0
12.412455385193	-0.275030800337	0
12.929165084344	-0.221336108042	0
12.686337592177	-0.258437422252	0
12.900449535554	-0.462768612232	0
12.5	0	0
9.405755833308	-0.325979504745	0
9.111697192308	-0.594170467817	0
9.457257345083	-0.753685223931	0
18.101369157139	-0.618560521812	0
18.336839281097	-0.861122419318	0
10.385948631267	-0.570640149046	0
9.5	0	0
13.411260455969	-0.342646276848	0
12.643108055516	-0.590179775368	0
13.137744715761	-0.195204172124	0
13	0	0
21.25	0	0
21.358341816502	-0.326561417551	0
21.5	0	0
13.816492716597	-0.40394453634	0
20.25	0	0
20.423452336785	-0.313445603959	0
20.5	0	0
17.789350393153	-0.390447709085	0
17.987794057246	-0.401472255242	0
17.881276545163	-0.206424156589	0
19.564465692234	-0.270867872644	0
19.290725118801	-0.49926248604	0
16.392319441256	-0.29915360323	0
19.443730892406	-0.923508713428	0
20.457987075478	-0.803203365193	0
20.167450719332	-0.505159975143	0
0.103762538371	-0.253013629949	0
0.267057015134	-0.483604909932	0
0.374713194419	-0.2320817565	0
13.25	0	0
17.415572543912	-0.230682214253	0
17.5	0	0
17.25	0	0
18.108153655084	-0.208141099276	0
18.25	0	0
18	0	0
15.75	0	0
15.544586046819	-0.246453491997	0
15.122708481244	-0.193620038745	0
15.25	0	0
15	0	0
19.75	0	0
24.149237782749	-0.319013340846	0
23.842766599446	-0.577371105011	0
24.183995039967	-0.73159476451	0
13.871646321742	-0.17394291424	0
23.862588150518	-0.245417872715	0
16.84024277193	-0.203626765466	0
16.704049384397	-0.435508179396	0
17.112673188265	-0.38804641709	0
24.75	0	0
24.832880292394	-0.290571430318	0
25	0	0
16.40158555625	-0.755912194683	0
16.850299990829	-0.757941865332	0
17.75	0	0
23.567455674596	-0.325197491724	0
16.25	0	0
16	0	0
22.645812614293	-0.197864648876	0
22.75	0	0
22.5	0	0
16.75	0	0
17	0	0
24	0	0
26.914424714815	-0.337869958787	0
26.621963281699	-0.624626679172	0
26.977877660759	-0.778408201088	0
26.622424322919	-0.264588309935	0
19.34462271879	-0.199329831305	0
19.25	0	0
19.118057075065	-0.225686869553	0
19.5	0	0
26.75	0	0
27	0	0
27.5	0	0
27.604422363523	-0.298869962794	0
27.75	0	0
17.650384190064	-0.227839036584	0
18.343198956448	-0.236734208617	0
18.5	0	0
24.25	0	0
20.143897114391	-0.233773711865	0
25.5	0	0
25.25	0	0
25.344389320279	-0.31693710653	0
21.059546193318	-0.24845941382	0
20	0	0
25.842927934822	-0.248287716678	0
25.75	0	0
25.613904645132	-0.216025146631	0
21	0	0
11.763551406169	-1.481607093928	0
30.981104050195	-0.5526690913	0
30.873880294509	-0.217692518774	0
30.706626759758	-0.34945139905	0
20.75	0	0
20.85240828135	-0.178025243856	0
23.75	0	0
20.66289882074	-0.189089155251	0
30.204950808504	-0.791758966623	0
30.715535843381	-1.149995259266	0
30.543724897762	-0.572259098027	0
30	0	0
30.180216671806	-0.343473673313	0
30.25	0	0
23.229584388362	-0.458653998547	0
29.5	0	0
29.623391954444	-0.322069028408	0
29.75	0	0
21.618913855927	-0.233585823579	0
21.75	0	0
29.348490380579	-0.521100538161	0
29.36294710412	-0.230601226356	0
22	0	0
22.25	0	0
28.25	0	0
28	0	0
28.129259193923	-0.314252106503	0
28.44374413871	-0.484576386004	0
28.100199615755	-0.812038297775	0
28.649230646972	-0.871769248311	0
28.618403654115	-0.227691192115	0
28.5	0	0
28.387848605749	-0.205892081491	0
29.054768525933	-0.708603081552	0
29.344906532636	-0.846887322836	0
26.327430876245	-0.35930637997	0
10.349120516034	-1.04150119828	0
10.894920134778	-1.514321070539	0
24.59640839418	-0.191760546865	0
12.75	0	0
24.5	0	0
13.102881121377	-0.411296235356	0
25.099388239946	-0.214879887129	0
25.97986022697	-0.52841375324	0
24.398993403151	-0.196312410538	0
17.860840746535	-0.577367743328	0
17.566481510048	-0.529340016102	0
26.5	0	0
16.637148248735	-0.188015807345	0
18.183918302467	-0.396443618316	0
27.159348252167	-0.205297590358	0
27.357530053515	-0.198815038154	0
27.25	0	0
15.060354649709	-1.112587998155	0
15.51532665618	-1.043792149387	0
15.178150912169	-0.713100616689	0
10.051363365948	-0.719159376333	0
14.661248691948	-0.27865166374	0
14.75	0	0
27.868836823455	-0.217301839861	0
31	0	0
30.75	0	0
-0.020273477909	-1.415389842481	0
1.054972770973	-1.487485199502	0
0.512583677021	-1.0438154777	0
0.75	0	0
2.361419414365	-0.794513604096	0
29.890297721653	-0.2433406165	0
30.473599299501	-0.238575611274	0
30.5	0	0
30.660802173874	-0.161931182737	0
28.783812899585	-0.467926883932	0
4.937022539393	-0.72440615077	0
6.696914540879	-0.380672503721	0
7.434272221796	-0.695675918868	0
15.339606453815	-0.166204802571	0
15.281953315711	-0.388999642276	0
11.893544445085	-0.335972898148	0
12	0	0
9.753796445798	-0.478866225926	0
7.720012958977	-0.638314519759	0
21.871398197179	-0.313006985103	0
21.615176662754	-0.521922347305	0
21.856785525528	-0.665128848631	0
20.792152536902	-0.448319093295	0
21.109577821412	-0.527879642114	0
21.360297691811	-0.734200004244	0
15.547854961707	-0.580173571081	0
24.496861814148	-0.467031445896	0
25.067351422649	-0.463427753535	0
24.81263825963	-0.684738154192	0
22.865620821195	-0.218348593093	0
23.443705587002	-0.773171720633	0
27.277617447467	-0.489224417775	0
27.863714790534	-0.471681393437	0
26.239117668995	-0.863279739365	0
29.896797054636	-0.547765129844	0
29.612773839625	-0.699757135752	0
29.867172666547	-0.87444432816	0
29.610354212963	-1.521444655905	0
29.59548165142	-1.071765512911	0
29.115129171034	-1.220660174798	0
31.345359428525	-0.458952144926	0
31.144859415042	-0.241304201582	0
15.919565295974	-0.746550096707	0
16.063006820294	-1.289595303187	0
16.5	0	0
14.900855313538	-0.178071167744	0
14.161016743654	-0.72559708689	0
19.011498044983	-0.834202892304	0
16.760433281999	-1.263698818643	0
17.280361389946	-0.931704507314	0
-0.627742252535	-0.296285438777	0
-1	0	0
-1	-0.5	0
0.625738545692	-0.228405936136	0
0.5	0	0
3.313957665883	-0.865581185485	0
3.619156095452	-0.800599314657	0
[...]
CELL_DATA 986
SCALARS 160.00_0.25 double 1
LOOKUP_TABLE default
11.919607881131 9.950009690951 9.0229209829086 8.7997792995753 7.8953684266733 10.400374153432 9.202087517213 6.5568897593849 11.730782909901 10.216053203917 9.5372590493039 11.159685977824 10.108903581988 11.161992113981 11.406360866231 10.56076581351 5.3858238621484 8.7009430109183 12.12567934665 12.565355470404 11.163250135469 11.339998625358 12.366399504009 11.019436392821 10.509811580997 10.942085248972 10.823901825321 6.9503362468862 11.19422074318 10.668969852933 9.7418167155034 10.490062469655 11.055752189859 11.871624466784 9.3732401391662 11.063485097923 10.529411227404 10.16706845977 7.3290269291468 9.4461408127317 12.900522748152 8.6672840612769 11.035552466486 5.7851877422958 10.725398137259 10.418882378801 7.4233328938856 8.3422545647401 11.231071899153 10.306286714933 10.288329125534 9.3536206677872 7.8529686757947 10.761347409327 7.8565454963977 11.458812486431 5.7127012172742 11.060779657917 10.587489573998 9.5235963582174 10.870456423756 9.9189635156159 11.041944054851 12.488262399319 11.347850457316 11.228995938735 8.4927711430444 8.3923358888613 11.448069023098 9.3855587011523 11.747829038223 11.201065503996 10.821710404545 11.534106208938 10.818689538529 8.4364476405782 10.602564643461 10.753705972678 11.285874966823 11.227389123281 9.6669954542323 7.7735824555942 11.566521681351 9.9285633530881 12.593843466944 13.137208125725 10.336978579237 12.065839373024 11.354822509804 11.022374707845 10.527842955167 11.545254436509 9.2538441074662 10.393748033056 9.8081921875839 11.903200732954 11.742554258121 11.842554504273 11.013370895296 11.8109462129 10.356593608922 12.608867188416 10.324017431898 10.406046413497 8.7626979448919 7.9226127437191 10.533471086726 9.8347616616085 9.286841949731 10.163890915235 9.5781436727147 11.287347577674 10.066780506721 10.182451957982 10.160181001128 13.328799638633 10.004281041781 12.033839295038 9.5889797487596 10.716887355534 8.0686098930135 12.326370421787 9.1283839387239 9.0209096622161 9.7737666078996 11.440029889737 9.1848788746307 9.1674192389933 12.002897146268 10.727582977704 10.000680320442 11.26418082347 10.880052625651 11.260761825878 8.3374209413428 10.794732390505 9.5727731596911 11.066876295996 10.706927496396 8.6884700540201 10.863465052459 9.4024901940331 11.948759505267 10.511319767943 13.4483563672 12.14205856176 10.643223706428 7.6282348504247 9.8214235218069 8.6502095763376 11.448445323383 11.899088999566 9.9434140450809 11.439329723934 10.706739625118 11.054801308182 11.134301029655 10.156925379233 9.5276234788269 9.4963303819976 12.477877818317 11.018577709065 10.412564009821 12.910135057691 11.081416709131 10.804723162693 6.5416874580874 8.8288442337216 12.544343752099 10.183051370773 12.169722449996 11.656519905065 7.4483988235075 9.1296032909654 10.70331522852 10.328422433243 12.550686751136 11.479344846415 9.2408070783162 10.098268933121 11.888036205858 10.727161953145 11.13480999667 7.3386423142941 7.4483945343821 12.321524074865 10.977632999474 11.543854070512 9.3687863031635 7.4424335234825 8.6733020273268 6.513668098347 10.362222920558 7.3209723731893 10.642201554832 11.149774496689 7.2087700714482 11.512495647719 11.054402542022 10.076870236559 10.853182280831 9.6730530746721 10.857518379465 10.389196782824 10.941691020856 8.2823199204163 10.45242995201 10.183947730006 10.861679078763 10.924830524584 10.211260766526 10.995743266636 9.4963443491118 9.6558211592983 9.9035004174234 9.9116219183307 7.1786696884009 10.208294709179 6.8110421807893 9.8806724771381 10.362478834717 11.120621213649 10.830780194563 12.804005026135 10.254864269736 11.367862224219 10.706213064188 10.358717967794 9.1515357348191 11.863416861843 8.8583298422004 6.0089276276875 10.482742534357 10.406809813682 9.6875662088571 10.996113221413 10.101019526197 7.5197396043244 10.969426865244 9.1569196279156 9.3999295083357 9.0539145115582 11.538841973805 10.468285186216 9.5426218054821 10.519288483764 9.7228375529475 9.2163595706583 9.2422858383161 9.6193154782938 8.9681655811896 10.0770396099 7.8714893441865 10.119292564189 10.540265135751 9.1805244680301 11.449359974878 10.305043098046 11.453400345034 8.1452808883299 10.048113043547 9.4514930313448 11.08927734394 10.372820208318 9.5747009933164 11.528623940932 9.1909632354469 11.802112174216 9.2142958597804 9.4768369623867 9.7765876048448 10.368785153109 10.398056322046 10.237476909957 10.920066895242 10.97568499571 10.538711654269 10.47631560467 10.798260933344 11.315764167188 8.7454510747778 11.319522353901 12.100782068201 11.746093160367 7.7385018506216 12.267012624301 10.503732878179 11.833773997686 11.968958762473 10.667260197048 9.6225044520139 8.9282873620776 8.7845578041314 12.040554535492 10.257853315757 11.561561273619 10.261399171612 11.630020330742 11.841682800219 11.315301522515 8.8255982019026 12.006174728722 11.981154331331 10.532130891709 9.2690031283214 8.6340148515771 10.603867099188 11.463971791384 9.8718084407239 10.634042914088 9.9080795740086 10.840703738007 9.4534046028323 10.02535590321 10.055500010377 8.8009081004168 10.688219833858 8.4451758031106 9.4798653512608 10.690848187853 9.4059066039013 10.323309756857 10.040849179641 9.6469701091936 9.2383752667317 9.4344281605445 11.766152994206 7.677793897836 7.5035849311365 5.5848239320341 8.0131889133974 8.3240753623256 9.2122242682383 10.33522627245 9.3446420648085 9.8779098739472 8.5905981602773 11.007814229245 8.6124870975706 11.309721717697 6.7994466787779 8.0844134865721 12.203234579414 11.668688182502 11.154028940766 10.196879550912 10.816259162958 11.06323616313 10.37359702976 9.4540734429798 10.362721048354 7.399931521752 9.7756237624261 7.1445335133545 10.047884311564 6.9450549092291 6.5066463419931 8.6244842748708 8.5522065966264 10.205088806884 9.5712650882386 6.7360362409639 7.9267591608299 9.4235153863306 10.674592210625 7.990972562878 7.0193260527769 6.803646506342 7.8847151630086 11.060486122493 11.607728051138 9.7167557158694 8.6409099953307 7.6962845918069 9.0733057703807 10.326781370878 8.6192083487657 11.268225472648 10.313411301169 7.8328555822413 6.3315473948118 9.3321688985757 9.9767460667111 11.054556882637 11.77133550169 10.662482424522 9.8318702972561 11.210559840337 7.7116822813454 12.393386800271 9.2780670948739 8.9723011612309 7.7600496682151 10.273198480555 8.9509915810165 11.072647050587 8.9689317047957 9.2836124731611 10.434443813751 9.8566993259891 11.476036354264 11.316259599481 9.9374446667139 9.8141546823967 7.3670786727311 12.054229095256 7.7328524995653 10.074308261679 10.689075910562 9.7569021933307 11.719231709903 9.7150505037881 9.8119497149605 8.6745176219605 9.8993013267405 9.5132174979593 8.4211300667341 8.0977622983067 6.9433364791929 8.8998889527794 6.6818806259382 10.50072440683 9.7116423848752 8.30752727472 8.4296933875845 10.060867310362 7.950038532885 7.4137994926789 8.4265173232561 7.4425712006136 8.1000631959761 11.358482277406 10.071785561704 9.7499650171393 8.7103058062104 8.8030162264856 6.3797689121322 9.0953513982781 5.5677106743524 9.2955041740326 6.2155174231593 8.5475234033482 10.648477279262 9.8444515820474 6.8765501222102 10.222830033798 5.4339615533118 10.949564924101 8.1219983911836 8.8724401734443 11.754576216767 11.394809526716 11.052151495756 9.1093456818143 6.1747853850925 4.9480436769327 8.6809927176278 10.552863876443 8.535501659499 9.6519605754604 8.03858516146 9.8409227610396 8.8815433409758 9.2789798616486 8.9334989214325 5.9509376823664 6.7023799973182 8.9914171959723 6.93024170138 5.8570135468771 7.1944789356745 9.9287083176339 7.4983702092645 6.0018460981216 5.1888312804242 10.576642628588 8.9110136201913 9.4157113431738 8.6251271637241 6.5677983386491 8.3948871354017 6.6893619665109 6.8966156349011 10.737392887975 9.0630101619293 8.7016508934254 9.1618217260444 10.876897850132 7.8679391106853 9.6794926837769 5.7430372631461 8.9579153839626 11.583531551211 11.403166488042 8.7854090409897 7.0109584678024 5.4510265432157 4.4386561251029 7.9171695584213 10.282423342996 7.8682328539678 7.6840356849169 6.5128304514591 7.7055070531524 8.4590803314507 10.797136008672 6.1085465512273 9.7213879963678 10.728393170085 4.7743337610234 9.1259213962099 11.554987970135 10.506544450824 6.4015005285722 8.5215396024043 9.4502748801797 7.4446398602487 6.7975454288994 5.896228927432 10.424572807712 10.011155871407 6.0062719924936 8.5118528185851 9.3145310352534 7.0827275276717 6.2172655134245 5.5846153342161 10.142944315606 9.0313391207649 7.3028191467172 8.3588754281746 8.2283413001566 8.2876613529962 9.4409889985928 8.297528952413 7.9751974729463 10.217412373005 9.5089531093481 5.5869750669937 3.9380041661065 10.231054791492 6.5496054155169 10.817957749675 9.358491251095 6.1949495845838 9.7266361754267 4.4489228504647 7.6036221716347 3.917543834967 4.8868800838163 9.3839199991061 6.2801179026761 9.8818977179308 6.0145270466214 9.9359652303431 9.3040800980021 7.2574629543165 9.5740914493947 5.5646305553856 6.6769139483918 8.0154157604375 7.1297300868953 8.5145681671022 6.3780160050178 7.943388531015 9.7261748731513 5.9039444700073 5.3236680285781 8.8416629629352 7.9868636752778 11.59942136195 7.9581345253001 10.619426478283 7.6560341045867 9.9062618449841 10.084988838158 6.7664101579158 4.5586575655147 8.5114202986136 7.4537509116078 7.6485408964582 7.7148207960337 11.576645033928 9.8902086420441 5.7528242693414 9.4992099981898 10.159929127539 8.482659366989 8.7300639576586 7.844214853164 8.4823991139837 7.5937392911133 4.5590580430029 8.8684187195061 4.8114654569816 8.3079810454261 8.9333387089113 9.4899287425777 6.8073253397749 8.3919517997432 9.1391787771214 8.6872382911548 8.2577044673553 6.8814835134 5.488467367247 4.4360966878918 5.6643324944744 8.0390132673882 9.7643299733566 7.8815234626008 6.8526641252666 7.6695454856388 6.1823988573724 11.956031197799 6.0447799154039 11.010544606408 9.7014224084217 4.1264656280708 9.0360215045884 9.2527654555687 9.2027973325654 8.5477489921054 7.4479473243889 6.4853515354921 6.3647341119691 6.2100052726041 7.6340977145948 9.079448063681 4.2691778556358 5.4391048567397 4.8156471898103 6.0589008266887 5.3622700676232 9.3128507015605 6.838714695906 8.6473718799003 5.2593111048005 5.442917188297 6.1533211861416 8.7581110662411 4.7891564425907 4.7030768492447 7.3107638559215 6.0812462385666 4.088195662263 6.1814642502033 10.513841342307 9.7341651822558 7.4444437398214 5.0345502439415 5.6848678760591 4.8473014414615 7.1330462564852 7.4507019535353 7.4730505119743 7.6507110331333 7.5638935892309 7.967902993792 6.5406076990851 7.5846939346178 6.7522420117093 7.6466814426816 6.1505748701589 7.3950909196826 7.7070805594917 6.6751891421862 7.2033109282848 7.0820234432238 7.1265122537487 7.401432397452 7.4217700453317 6.8402713789035 7.186575114985 4.5156161247779 6.0202053885917 9.4957849307563 4.73769057735 10.488896822932 7.2353723349896 6.8741610702318 6.7519552694433 7.8023937704206 6.1248944678532 5.2405345739323 5.2385359713333 5.2903534867347 5.7123119936823 10.102654768384 12.555835141837 10.953446068099 10.100464476814 5.4879969900987 3.7633438314686 6.0448631316463 6.5101405003323 6.9820931720126 5.9630990406854 6.4081944377423 5.4288323062974 6.4873735513357 7.4818990179032 6.8042306639002 6.8449647239962 6.6638031770854 7.0460797770046 6.2729730981986 5.7054007121861 7.0685675853506 7.0123380812453 5.0854679327664 3.6572275108132 3.4188446877919 4.8872596892961 4.4252520903558 7.2096925236553 6.7662427379614 8.3697488313929 6.8257831239442 12.117391796181 11.560205515279 4.4537115377685 4.9330469598695 9.1209547202127 5.8943275494861 4.2062028752302 4.3729319383638 5.6938208025201 7.5602054726176 11.289318603008 7.5786165626765 7.8187194677723 6.094159379523 5.941863051275 11.381989631695 5.3162319066909 8.2312257706661 12.415458358528 6.1109032111704 4.6432202008504 9.2099662816171 9.1574354764091 5.806162937143 5.1309650727085 4.9518114739567 7.1627164455458 3.8414622059582 5.7183694386748 3.8796585615684 3.7730257575459 4.4038598387941 10.141994954929 5.4757189061563 5.9110193050784 5.2387853446509 5.5123774618709 4.9109791052909 6.5187269669667 10.588267418374 4.0194494284046 6.7855678540326 3.5284445835003 4.3476267446681 5.5031310542206 4.798054570809 4.0865984131506 4.3776644430687 4.7466101637532 4.7145498304403 5.7031218448328 4.1625983762495 9.6859595815667 5.5778044977906 4.0565204547912 4.4472167377506 5.2917951826198 5.1917465809209 8.0375660013088 7.6740745691643 9.158405143158 8.6966708168563 7.3753263708908 8.1529666211156 6.4947640652675 7.1895977762511 8.6240739034707 8.0604588357204 5.8774910545945 6.811581548882 6.4750414786603 8.6889391573656 7.4868996168616 3.6472136988798 5.3515018370536 6.1573228773412 4.7042831337163 4.7545269168549 4.2841579286805 4.3858061364091 4.0911499699454 4.9998438276599 4.1300160160029 4.8101061216387 5.7012114887203 11.524817867853 4.8275574994235 5.8313564455219 5.5786975401922 10.625673675765 8.2801914678534 4.0216986721972 3.924360146736 3.6674414028443 4.7846801086061 5.303105656205 12.470111946659 3.9691064830331 4.5142649101376 4.8672831063668 3.4320612003794 4.6484314187421 5.692520432727 5.1177371232513 5.0353664749276 4.3971404712018 5.3090155520366 4.8347661561085 4.1161927401336 5.4668429552694 3.6819533837956 4.1518415038686 4.8938064320968 4.275857151996 3.5186560681817 3.9950690996272 3.6479068128135 3.8459539115045 3.7869769306635 3.7623170164953 3.7707414598464 4.8929531715091 4.5625237749792 5.7424493484388 6.0607825341225 4.0051000184895 3.632377411341 3.5381742370234 4.4460745962706 3.6098485105929 3.7003746970706 3.6802839714208 3.6881499360895 3.777031672607 4.2587885146016 3.8745644771564 4.7151610031083 3.4895497559233 3.405255099708 4.4229294322235 4.3387129546479 3.4633995263337 3.439880398601 3.6824532315733 3.7096948384042 3.5956004407486 3.7015872272256 3.5766714706663 3.7426679225481 3.8467769378418 3.593846611041 4.1356150283321 3.7002112082437 3.679572043555 3.520960836402 4.3888541300104 3.4250062743389 3.5422135522389 3.5207190961956 3.4139582384692 3.4032812177579 3.5489371011309 3.5392137347751 3.7867406584277 3.6303079851042 4.3987358363312 3.517307804264 4.1076204049545 3.3621974106222 3.4553965516263 3.8545098663388 4.0485961171269 3.4922133768703 3.4656130490741 3.3886489686674 4.9513065549482 3.9700614386166 3.9703220726872 3.9191027424637 3.4907001849261 3.4726426207306 3.4325819506653 3.4479194506347 4.1910416408659 3.5426008800465 3.5298742049233 3.6256199136704 4.4171867365095 3.9205160460914 4.0338919310332 3.3537980506302 3.471115799543 4.4168463924787 4.1180293261195 3.6945200095758 3.6018430899609 3.8534271358009 3.3543587826099 3.6665709635592 3.6675833054888 4.3281751924908 3.5396281472849 3.6212875148612 4.1599688846897 3.5922313910461 4.1503642518713 3.7048768144442 3.6908174493846 4.3319260219658 4.4941223731875 4.2571339232758 3.6174211068936 3.8598268636883 3.4835048091813 3.4350660212206 3.4471166710162 3.5176971253166 3.6335710854359 4.1997219712396 3.9964634601698 3.917648187211 3.867003507657 4.0591879167789 3.8345772198664 4.3831431703205 4.4077557119573 4.3620222106948 3.6228547490141 3.5754762361053 3.5325100488907 3.7277727893511 3.9934235233809 3.422741519484 3.5452764414103 3.7965127950817 3.5713007033219 3.7239751761271 3.6130541291387 3.8990785683326 3.9459507590475 4.0183953981656 3.8660444586284 4.1443214000451 4.2165344513654 4.1017956324768 4.0778033212921 4.0154470142525 4.1793551473078 4.2100515459759 4.1828556364903 4.1327107693744 3.7612466820962 3.5894949766947 4.2431029374791 3.818317476131 3.6789197619203 3.8476421650564 3.9524482464172 4.1406020460727 3.8488885697643 3.9884273700516 4.2103370660287 4.1315014147322 4.1603017504239 4.1771564821594 3.9490943672706 4.1948628176483 4.1457786315009 
SCALARS 20.00_0.14 double 1
LOOKUP_TABLE default