# vtk DataFile Version 3.0
d-2__ created by libgimli-v1.0.12
ASCII
DATASET UNSTRUCTURED_GRID
POINTS 1303 double
5.625	0	0
5.511811217919	-0.146388704457	0
5.676386535709	-0.13519637448	0
0.25	0	0
0.175228502521	-0.179050409113	0
0.326009290428	-0.144330725415	0
0.375	0	0
0.990207725992	-0.114957291708	0
0.841075314552	-0.137634199948	0
0.926498288371	-0.349340723189	0
-0.001071200562	-0.386156929004	0
-0.003317641763	-0.130454088023	0
-0.192720422374	-0.216308252768	0
1.25	0	0
1.175215748534	-0.200562384647	0
1.341115762259	-0.128605193971	0
1.375	0	0
2.25	0	0
2.168494514827	-0.19848886597	0
2.338304607341	-0.128945294536	0
2.375	0	0
1.911268305082	-0.334701951691	0
1.986191885908	-0.110806668109	0
1.838390258011	-0.128853462534	0
1.75	0	0
1.670105949089	-0.197137117999	0
2.986685504441	-0.10889534818	0
2.838723720416	-0.127406828384	0
2.912854264006	-0.329775839393	0
0.75	0	0
0.664572693147	-0.222613872306	0
3.25	0	0
3.168798596028	-0.193682232199	0
3.337828500197	-0.125181208794	0
2.875	0	0
2.75	0	0
4.25	0	0
4.161099470995	-0.193412132741	0
4.332718836325	-0.127723897736	0
3.83511440706	-0.12403687807	0
3.875	0	0
3.75	0	0
3.901908238995	-0.321557035295	0
3.983050435256	-0.106770030737	0
3.665527023987	-0.190866765849	0
5.25	0	0
5.164693411436	-0.21656556845	0
5.338419985376	-0.147288917438	0
4.834321952324	-0.135810575609	0
4.875	0	0
4.75	0	0
6.25	0	0
6.178399669611	-0.137425451145	0
6.356205370496	-0.193853696818	0
5.817814980918	-0.161175429964	0
5.875	0	0
5.75	0	0
6.611939839541	-0.314381537706	0
6.522886280605	-0.104721203126	0
6.75	0	0
6.669178832877	-0.119404962711	0
6.836073690852	-0.177498311423	0
5.39059629209	-0.37339102075	0
4.660917359886	-0.204007052252	0
4.902096977384	-0.356327271651	0
14.897042426984	-0.319128540459	0
14.98121339776	-0.105010975498	0
14.832720105416	-0.123004000492	0
2.669265824618	-0.196872625129	0
7.656019919505	-0.144451020927	0
7.75	0	0
7.625	0	0
6.625	0	0
8.75	0	0
8.672937461928	-0.164309120831	0
8.834289374889	-0.109279841483	0
8.206809119751	-0.294811800109	0
8.187056112549	-0.110869448227	0
8.024316200302	-0.129362764133	0
7.157390904024	-0.111206354394	0
7.25	0	0
7.125	0	0
8.25	0	0
8.125	0	0
9.75	0	0
9.651145885459	-0.185384966231	0
9.827054067621	-0.122428024454	0
9.381816956327	-0.305807769915	0
9.476753337472	-0.101567493772	0
9.327490061855	-0.116748040282	0
10.75	0	0
10.655660803951	-0.196164841752	0
10.830485405183	-0.127989131147	0
10.386748323888	-0.329675548046	0
10.478464938155	-0.108955040137	0
10.328560245085	-0.126395562242	0
9.25	0	0
9.375	0	0
10.25	0	0
10.15270392044	-0.192469144253	0
8.328856990144	-0.128933011689	0
8.375	0	0
9.153857570119	-0.175508527296	0
11.75	0	0
11.660624577581	-0.201812344528	0
11.833823570609	-0.131890823957	0
11.395399221028	-0.337817920558	0
11.481219500696	-0.111845889235	0
11.331881500183	-0.129806070652	0
12.75	0	0
12.669299873111	-0.199190799603	0
12.839534650452	-0.128328673855	0
12.40897914742	-0.340185307353	0
12.485654611126	-0.112072117633	0
12.336727606385	-0.131188239877	0
11.875	0	0
12.25	0	0
12.164627546098	-0.202605127067	0
13.75	0	0
13.669268468008	-0.186168180444	0
13.837322273199	-0.120178339978	0
13.416957459915	-0.319650485848	0
13.487510959619	-0.105281058988	0
13.34010202956	-0.123833443479	0
14.75	0	0
14.66080663422	-0.189613659871	0
14.399926333663	-0.319306441484	0
14.4823067449	-0.105599641009	0
14.334114343934	-0.12250571155	0
14.875	0	0
15.25	0	0
15.158227025815	-0.185762723401	0
15.330441202311	-0.11956675178	0
13.875	0	0
14.25	0	0
14.163960939829	-0.186365139356	0
12.875	0	0
13.25	0	0
13.171786689458	-0.193064330135	0
10.875	0	0
11.25	0	0
11.158129238503	-0.198418008741	0
7.31587636932	-0.171642077952	0
15.3902841013	-0.308450173235	0
15.478958243586	-0.102394874489	0
-0.125	0	0
0.125	0	0
0	0	0
-1	0	0
-0.706889652808	-0.331752981492	0
-0.5	0	0
1.125	0	0
1	0	0
1.625	0	0
2.125	0	0
2	0	0
1.5	0	0
1.488007132967	-0.109900770852	0
0.5	0	0
0.474245721096	-0.130043839003	0
0.625	0	0
3.125	0	0
3	0	0
3.625	0	0
4.125	0	0
4	0	0
3.5	0	0
3.485533411273	-0.107014956798	0
5.67736414417	-0.368119689468	0
5.125	0	0
5	0	0
4.98353533542	-0.118243061674	0
6.125	0	0
6	0	0
6.009467825362	-0.139471566496	0
6.5	0	0
4.625	0	0
5.5	0	0
4.5	0	0
4.481603306259	-0.111052305129	0
2.5	0	0
2.486482293556	-0.110456056597	0
2.625	0	0
7.828740664136	-0.157959666613	0
7.5	0	0
7.497789303332	-0.098817221798	0
8.625	0	0
8.5	0	0
8.493725508365	-0.094448160765	0
8	0	0
10.625	0	0
9.625	0	0
9.5	0	0
9.125	0	0
10.5	0	0
10	0	0
9.976983002093	-0.106037154081	0
10.125	0	0
9	0	0
8.980258705317	-0.095443922293	0
12.625	0	0
11.625	0	0
11.5	0	0
13.625	0	0
12.5	0	0
12	0	0
11.983083448534	-0.113269018621	0
12.125	0	0
15.125	0	0
13.5	0	0
13.125	0	0
14.625	0	0
14.5	0	0
15	0	0
11.125	0	0
14	0	0
13.984735949845	-0.103165953766	0
14.125	0	0
13	0	0
12.987740386932	-0.109238757727	0
11	0	0
10.980033547654	-0.110118532971	0
7	0	0
7.012790729926	-0.096165366155	0
15.625	0	0
15.653391866104	-0.184257106926	0
15.75	0	0
16.25	0	0
16.151956269841	-0.190746813766	0
16.328162175541	-0.125534698515	0
15.827345422636	-0.12109528269	0
15.881623705918	-0.315197408181	0
15.9768075603	-0.104841845177	0
17.25	0	0
17.155473725888	-0.187015736188	0
17.328334720487	-0.12053442359	0
17.375	0	0
16.97978281674	-0.105790715925	0
16.830585534618	-0.124270763258	0
16.892220832712	-0.321708894118	0
16.75	0	0
16.655725821363	-0.19281499559	0
18.25	0	0
18.144056513649	-0.199584109463	0
18.322695877645	-0.133173012767	0
18.375	0	0
19.25	0	0
19.156955168382	-0.212194778097	0
19.332395147696	-0.137501625504	0
19.375	0	0
18.978107771567	-0.118463258117	0
18.827251646435	-0.137822523984	0
18.884674261801	-0.359498065923	0
18.75	0	0
18.648603260315	-0.210400354993	0
17.973004229039	-0.108213471414	0
17.823362138939	-0.124125311933	0
17.87020700187	-0.324156104502	0
17.75	0	0
17.64837652944	-0.187413016584	0
20.25	0	0
20.167288289523	-0.206556633625	0
20.33799343326	-0.133667464393	0
20.375	0	0
21.25	0	0
21.172020853715	-0.201327641466	0
21.340729826518	-0.130206344264	0
20.875	0	0
20.75	0	0
20.839555732676	-0.132066213667	0
20.987710400762	-0.112937783384	0
20.915843633601	-0.342386775443	0
20.669904108595	-0.203936882105	0
22.25	0	0
22.168893714495	-0.194483818359	0
22.337089427477	-0.126591453251	0
21.875	0	0
21.75	0	0
21.840184239699	-0.127666317168	0
23.25	0	0
23.162361450448	-0.215073727418	0
23.335945395372	-0.148199257458	0
22.875	0	0
22.75	0	0
22.83504078106	-0.133126573368	0
27.412614995451	-0.337768305098	0
27.406417478875	-0.760610856776	0
27.663031754041	-0.476449210851	0
23.674319496044	-0.139602731619	0
23.75	0	0
23.625	0	0
22.902876337082	-0.348446434986	0
22.664415839639	-0.19979598046	0
21.987454968006	-0.109075483352	0
21.916658702332	-0.330379709848	0
21.67241042914	-0.19774510361	0
19.984830323221	-0.115851903278	0
19.835879034474	-0.135573032779	0
19.906686139011	-0.351521653308	0
19.75	0	0
19.663378765328	-0.209646647928	0
24.75	0	0
24.672305039303	-0.121865624882	0
24.84054616259	-0.178479133746	0
24.25	0	0
24.125	0	0
24.179559510218	-0.145425217914	0
25.656694723316	-0.141492417978	0
25.75	0	0
25.625	0	0
25.25	0	0
25.125	0	0
25.159224348757	-0.109007087058	0
22.647257188685	-0.476376729768	0
22.872248033711	-0.780455516934	0
25.317652966423	-0.167196322239	0
31.908525182248	-0.237434634112	0
32.248547795208	-0.367887731521	0
32.025	0	0
26.398062594932	-0.327144710524	0
26.335089901602	-0.124890632532	0
26.169730315141	-0.188549564961	0
26.75	0	0
26.662500836065	-0.197477656933	0
26.835401004001	-0.129534360312	0
26.375	0	0
26.25	0	0
27.486869476066	-0.111474770432	0
27.338367230812	-0.130187170762	0
23.816158307302	-0.168335740772	0
23.875	0	0
24.625	0	0
27.75	0	0
27.67023663024	-0.198727549038	0
27.839431305592	-0.128541986375	0
27.375	0	0
27.25	0	0
28.75	0	0
28.666013303123	-0.192953151514	0
28.835335299513	-0.125393524551	0
28.875	0	0
28.41074998604	-0.32692743598	0
28.485854239984	-0.108071323096	0
28.338261561589	-0.126341817439	0
28.25	0	0
28.169650699531	-0.195402875109	0
29.75	0	0
29.656991685033	-0.201213204108	0
29.830700495316	-0.13323291855	0
29.875	0	0
30.75	0	0
30.665605116896	-0.213760177502	0
30.837855425721	-0.139272404211	0
30.875	0	0
30.987248292653	-0.119871959545	0
30.911614165903	-0.362389547989	0
31.25	0	0
31.174363802618	-0.217041176186	0
31.346460135447	-0.143418487957	0
30.400599561582	-0.360265197586	0
30.483280501431	-0.118794220148	0
30.3336351656	-0.137924489201	0
30.25	0	0
30.159375273254	-0.21004086356	0
29.392934647931	-0.331414044449	0
29.48031118177	-0.110263057575	0
29.331777210358	-0.127344913482	0
29.25	0	0
29.160548153072	-0.194064979946	0
27.167334579456	-0.200440763045	0
24.359650796728	-0.20304719459	0
-0.25	0	0
-0.404335947278	-0.221464959739	0
16.125	0	0
16	0	0
17.125	0	0
17	0	0
16.5	0	0
16.478267427857	-0.108008273171	0
16.625	0	0
18.125	0	0
18	0	0
19.125	0	0
19	0	0
18.5	0	0
18.473681471998	-0.115768873419	0
18.625	0	0
17.5	0	0
17.47687846862	-0.103462148239	0
17.625	0	0
20.125	0	0
20	0	0
21.125	0	0
21	0	0
20.5	0	0
20.486446843971	-0.114298370976	0
20.625	0	0
22.125	0	0
22	0	0
23.125	0	0
23	0	0
22.983281399654	-0.116385827149	0
23.5	0	0
23.509214189908	-0.149359691049	0
22.625	0	0
22.5	0	0
22.48467632496	-0.1093719097	0
21.5	0	0
21.488472844532	-0.111208801785	0
21.625	0	0
19.5	0	0
19.482219828947	-0.117572233456	0
19.625	0	0
24.5	0	0
24.525433875838	-0.108080714825	0
25.824234283709	-0.149177038136	0
25.5	0	0
25.498573523516	-0.096586408813	0
25	0	0
25.014769107289	-0.095147895568	0
21.919931345447	-0.741308582321	0
22.160361550711	-0.463896476278	0
26.625	0	0
26.5	0	0
26.482631880244	-0.108512805864	0
27.625	0	0
27.5	0	0
27	0	0
26.984612185119	-0.111680714924	0
27.125	0	0
26.125	0	0
26	0	0
25.990349817319	-0.10847866492	0
28.125	0	0
28.625	0	0
28.5	0	0
30.625	0	0
29.625	0	0
29.5	0	0
29	0	0
28.983089608831	-0.107750428826	0
29.125	0	0
30.125	0	0
30.5	0	0
31.63125	0	0
31.5	0	0
31.494696987447	-0.123712578064	0
23.671261205816	-0.380102168636	0
31	0	0
31.125	0	0
30	0	0
29.980228243528	-0.115525062547	0
28	0	0
[...]
CELL_DATA 2263
SCALARS 1000.00_1.66 double 1
LOOKUP_TABLE default
8.1881595623431 6.6851153640554 6.7556482943711 7.7553812817621 6.5360967881385 8.2934847717382 8.4125246295267 8.7480179995404 8.7243912436936 8.8783340237036 8.9160387203993 8.0644466915946 7.5703777693753 7.4482904156583 8.3308359396437 8.7673150404691 7.2521138066963 7.4372507318493 7.1619090653845 8.3404263394233 8.529818832222 7.7757675406988 7.9661893287644 7.4882528971875 7.3989133939 8.3028740016102 8.0759300242409 8.3389962982646 8.4676883540661 9.1968598131515 8.4158677116273 8.685278840697 7.3572207088608 9.416042659607 9.0897029945996 8.7041751671539 9.1194762015992 9.4889190069786 8.8276417288572 9.5063144459943 9.4650875695804 8.823952248649 9.4136916221701 9.2712600159152 8.9110639568612 9.2025078389833 9.1112069596792 9.0117861946588 9.2990330114346 9.1575161288341 9.9046849268131 9.0334570427587 9.2567525310435 9.6628626489735 9.5966552003489 9.5242025795384 8.7233268224528 9.0211571830638 9.5153002015136 9.165014584127 9.0467026338931 9.5283508652434 8.9977340385747 8.8012730801527 8.4926426933252 6.5656700660152 6.5584579449253 6.0738955388087 8.179514418659 7.9969450487244 8.9019151922019 9.0098076692558 8.7991550117562 8.8375682778101 7.1981520327871 6.5947369295122 7.6213681315306 7.9917432841027 7.1097864954472 8.0292671758077 7.1873810892715 8.6031405629514 8.0614188218377 8.5039317295328 8.0210890597369 8.0485396819583 7.452178133693 8.4653785171619 8.3273507841649 8.1507375319781 8.7091773069538 8.3465179186531 8.8019845525067 7.4542798639423 8.7144265571863 8.8501670718448 9.1763557463426 9.6009264910584 9.0870504408656 9.4951164700986 9.5401070276331 9.2218690093445 9.1063674114052 9.6495350031175 9.4440088922867 9.3626052689785 9.4011951233741 9.4839718321373 8.9263583249387 9.4006825538296 9.0673092330025 9.1782305114438 9.7848788147231 10.048707325344 8.9476764309577 9.281627126672 8.9749849680297 10.04202561378 9.2800462589544 9.0645996745152 9.5160645941389 9.5597125468666 9.130713876782 9.9411756249966 9.3746473661048 9.3342895140464 8.3266401019502 8.5981735914019 9.2452208406163 9.0631136174443 9.0842423299063 8.6693652972207 8.6535219404899 9.5567871823967 9.6974191176136 7.759333912626 7.6766069531652 10.098802544507 10.323242785288 8.8361215568511 8.6491864269433 8.7488215889297 9.2433886922413 10.547407039974 10.571117291229 8.1483188783757 9.6852117063121 9.0775506833635 9.8332633770009 9.0291581922328 9.1861044301211 8.8575458030349 8.6881954084585 6.8251990545008 8.8819706584451 8.6321253231713 8.6827770708162 9.0840918547023 9.0190132453393 9.9393381620902 9.6575693546012 8.8603137506792 7.9547547642443 9.0560203622797 8.7284305492414 7.6200317670172 8.7268250747475 6.4042918655563 8.1564070328814 7.6631018227361 8.2493673108578 7.6002840865517 8.6831502762103 8.7738823814572 8.335803147813 8.267006537476 7.583267716962 8.7253251529493 8.7993303019171 8.4700507062932 8.4105067938094 8.7468397477249 8.6461266431387 7.6175763283882 7.6252110616537 7.4647898109406 6.8644162132344 7.5977255287657 7.6592692684839 9.1607949903414 9.3307412375532 7.5333000815828 7.9464880389956 6.3788759536024 9.0891193090991 8.9362719905534 9.1999239354666 9.5675701780119 9.3218871145594 9.6484678931027 8.5024399631045 9.9551083030243 9.5398938488108 8.1084056866749 7.971813824357 9.479452167104 8.684235074133 9.507441290685 10.529811305271 8.2094488821866 8.7456324192145 10.653003910371 10.628591443623 9.0583373040936 9.2497834224324 8.7567870298955 9.0129805368921 9.0757647633729 8.7362059866821 9.004945105908 8.939932402878 8.6307603330565 10.201033696155 9.9906680558067 8.4911120880668 9.6194219595934 8.5582015122734 8.9455175379395 9.1455429513465 8.9439591442486 7.703874945489 7.8325998757557 8.1273110181393 8.1767453244667 7.9400116543618 7.5951886722778 8.5128643038383 8.819645709828 8.402185267404 8.6716977769435 7.6512038512651 9.3088453689872 9.237831762806 8.9854579299391 7.7523751483231 7.6881094847647 7.54751084235 6.9517797086493 8.5860528936914 7.2992279914099 9.3573205243314 8.1068595704979 6.9495593911803 8.4814505036913 8.6937519464438 8.2249424044 8.8966304841356 6.8710317049468 8.915136517117 6.5703476108449 7.7131566446097 7.0171122152978 8.0707845769028 8.6831887527714 8.9175487763755 8.7577078899998 8.8452210425925 9.0364311086216 7.3259199063782 7.9168685690443 7.789763082608 7.2649983020745 8.283531368935 9.0068628549713 7.1215985561643 7.6615526994274 8.408932137223 8.4423942648297 7.9158656740271 7.5661795586498 7.1262037323585 7.983322455582 8.1281019217835 7.9991011208446 8.5283023673508 8.6190653929576 8.701850976018 8.1302483316058 9.0465781320496 9.5776527694436 9.3692409839948 8.8576761501092 9.532420531582 9.3300408982469 9.606660785267 9.5816097792986 9.5310135748428 9.3430190644217 9.6945849739238 9.2788348437246 8.923188195844 9.404486427452 9.3660830209039 8.941555789624 9.335316690863 9.8758772988768 9.6256987002123 9.2073867898029 9.2747113763583 10.031900458001 9.2980785872237 9.0833684140084 8.7050124963232 9.583758572732 9.7355920055869 9.0367757758684 9.3117441740598 9.2239822526038 9.1794510573841 9.429725838574 9.0451912633367 6.2836115620064 9.0031763435936 9.463169306476 8.9210958715261 9.5452937810925 8.9323419467138 9.043131298583 9.5820269490736 9.6716053563118 8.218795317852 7.8148275704732 9.6766255486893 10.38634311504 8.2686253226617 9.3157893788447 9.5823930072005 8.7362193598031 10.58971373742 10.631180197038 8.4129550213331 8.4631510710613 10.401530439733 9.1907984282913 9.132072813282 9.1190470373718 8.9880330312533 9.0002128877199 8.4726843351161 8.4489356495447 8.8684274368401 8.8860421206219 8.7350743817903 9.3752532418044 9.7468984528567 10.229759078048 9.1247467829 9.1481124112614 8.8792213455182 8.8381529323622 8.5060537677131 9.0071881077678 7.9824788564361 7.5611735524912 8.6707572655565 8.1573381924897 8.0269228978528 8.5446711138126 8.6703754989221 9.0616233166431 8.4183382027789 8.6184032085649 9.1300096656313 8.352933511226 7.658874155938 7.5155369252068 7.1323240158105 6.8341630605184 7.8939383189221 7.6779756684706 9.290738525718 9.3618599832468 7.554057639417 7.7895919269346 8.2221366929309 8.3702919093686 6.6714024565905 6.4862076472701 6.8221877603277 6.6165587152868 6.9108524602098 7.7503164967175 7.6843765921517 8.3377584900796 8.9653406460126 7.3740766791462 7.8773511745246 8.4927804128571 7.1163722253655 6.9221181896165 7.2926399273548 8.9673215692494 7.4826820698405 8.3786117159655 7.7992573201904 7.228482195056 7.9376463314782 7.870153451743 8.242696195341 6.9975638544606 8.3510262438545 8.797931661232 8.4491674093121 5.887411630678 7.7348873486766 8.6534720112068 8.8007997676947 8.6385001866055 8.7423616925705 9.3682793479677 9.4925058930984 9.5871355171213 8.2158704043741 8.3225488092415 8.4854481789584 8.9502271491913 9.5163347067569 8.6848199346483 8.9059897167431 9.3069353240337 9.2029684418211 9.3499350574582 8.9725319095707 8.3593377166085 9.9498699063148 8.9656377381727 9.1755930943825 9.1535091525885 9.1173091726581 9.0062302642646 9.5074023593792 8.661933236691 9.6706808388286 9.498606262563 9.2596151086372 9.2426254340092 8.9125781518175 9.1153480302417 9.4342058381247 9.4255128312117 7.4297417248554 8.6551145643504 8.2452983543456 9.2222386582076 8.5057944193912 9.3348890290331 9.7892793604166 7.7867278732705 8.8534880266613 9.266580242279 9.0953505859451 8.441459742277 8.8588589156301 9.3308648943784 8.3501918886897 7.7281585337745 9.2597940320635 9.0359359613139 9.7527649353215 8.1839414575674 7.9328369434014 9.0597277185768 10.093183870374 10.301675149793 8.4651884610494 8.866238813952 8.8096718051112 8.2246923221802 8.7504892253541 8.938235928034 9.0099137403244 8.9856170578872 8.5679420641349 8.2790889307088 9.0336011921473 9.9421602152986 8.7605205397622 8.8878054737641 7.9625157896427 7.591467181863 8.2755521719954 7.592536412615 8.3218170420657 8.3970486218076 8.947683177463 8.8747893829999 7.4172224820778 8.1600025332868 8.461016217168 8.308679871659 7.7060269475263 8.3045509788811 9.3628686334486 7.2813763599673 7.6412363217105 6.7921760094711 7.5556200420936 6.5463732929891 8.9802463058528 8.2970563188685 8.4960154363309 8.8504509499685 8.1125501992564 7.5007870731293 8.6364260874016 7.9481619361542 6.1793089715889 6.1844409095815 7.0190492717407 6.6149537541912 6.7731791893986 6.8752098115425 8.2862640614241 8.5241700294218 8.6004230033551 8.7218665656655 8.7792826723279 8.9891520960001 7.5632933122366 7.7809937952068 7.2739565746285 7.3116351333851 8.461361153494 8.9799734704585 7.1999359989359 7.3991645091078 6.8335294619545 8.4226658237786 8.564263119767 7.7031065864941 6.7215436729448 7.5059924300244 7.7071225783183 7.9771409423662 7.9094534000077 8.5745811822613 8.1443614209894 8.2264933227205 8.5385851203482 8.9170763163178 8.6681884380377 9.366607508623 7.6328402516966 9.4028872699099 9.1699951612964 9.5684668565323 9.3605676031089 9.5376452678336 9.2866299440266 9.5937355111553 8.7955781027276 8.8211580944652 9.0402541366339 9.1903846128213 8.9136372672038 9.2606023708018 9.2835306551754 9.7647426891459 9.1176195497438 9.1288437764866 9.2803258025828 9.3781815692186 8.4442172652761 8.6148891085674 9.4628344297216 9.5809651081356 9.1092972346142 9.2328962143979 9.0113077244424 9.0563596258462 8.2062728731732 8.9837480355576 8.9202894911516 9.4646000569263 9.0174405874259 9.3684321600553 8.8927250354628 8.8301289989746 9.4919054866472 9.7735619054869 7.6805371922147 7.6984046744478 9.6876177440432 10.349840553337 8.4772126078452 9.0193536993848 8.9081976422316 8.9147677755303 10.177940033028 10.56380101345 8.1126069503563 8.2865897930748 9.2453453058097 9.4426188909536 8.8966033689308 9.0933573179998 8.2838361423542 8.894854144463 6.7556317041428 8.5489151372207 8.3491646990076 8.7677070479497 8.8565050376646 9.2724785013055 9.641168624764 9.9488268280018 7.1215940449109 9.0535557608726 8.5877788525436 8.8471673057801 7.6249296602458 8.7505266212289 7.9370260575083 7.5553565442863 7.7821561856084 8.1937846900244 8.1129907492051 8.4561624163945 8.6596052026785 8.8940188669505 8.331531740316 8.5223074864394 8.410331665337 8.4968283496277 7.476999081451 7.5876653948331 6.8964445634971 6.8111407105785 7.5717532529669 7.6473341606197 9.0884330331938 9.3448796726241 7.4426577905628 7.6472768744313 7.4361647405516 8.0386867473496 6.2960717094407 8.6023399694515 7.6115746567634 8.5397757582037 8.2711660501392 7.1043451885598 7.839095830511 8.3003989380512 7.0776973330319 7.0610617761142 7.8588710015538 8.4586600875134 7.6844824559115 7.0814594939168 7.1340445635629 6.8788792383288 9.2040006626522 8.3640343926382 8.0733772030088 8.4725067409536 7.913128320491 9.0293833159675 7.4975267736261 8.8764049694555 9.1593324147296 8.7782349180079 7.6580996976635 7.9944593806549 7.9774202190196 9.354551245931 8.733680000714 9.1749274436651 7.3880932582999 9.1419305033178 8.6196406285625 9.2761829043133 8.9463057963897 9.2386296275387 8.5429674735359 8.6887408231501 7.4363272700523 7.2855856966307 7.9077259262216 9.057267509325 8.4011460921847 9.3901542154276 7.7387538841997 8.5318407369304 8.5004194957329 8.9263688433805 8.0064131182972 8.0406447014113 8.0967118896783 8.3820344789964 8.4396980210767 9.0791810267332 7.9113197149907 8.733132846881 8.2987546229039 8.83472639828 8.4115085618292 8.7799844225633 7.507114662173 8.8993075823126 7.5796878201479 9.2735137157455 8.8159067196503 7.8522462742916 7.9485817227252 8.8984854470904 7.064134282189 9.6940063658824 8.6489711161963 10.058503758258 7.1900101474076 7.5434714980689 8.3367434656709 8.8027555576215 8.2466216578907 8.3978776637506 7.8194676784372 8.8540604177798 7.6899757143773 8.9595402295452 8.8174129014617 7.1787975204255 8.6881860455759 5.2980093670564 7.2665430474629 6.8944207841453 6.2658538645435 7.860792925268 6.8103669282197 8.0529463399372 7.8245160807288 8.9699875484946 6.4204752208616 8.6365081772594 8.9339996318465 7.4953454037686 8.574523152294 8.3504684245063 8.7723481533625 8.27950385007 8.6432855301299 8.0846810623113 7.0912545117913 8.9553697656373 8.2207344441067 7.9729773165435 7.5482128436085 7.8918694742207 7.4528454592532 7.2804976331461 6.8939095800774 6.8536163120049 6.5222369229263 6.387355330358 7.0267828423306 7.5350511264251 7.7517860493609 8.5161724857639 7.9426008597783 8.7179782261774 7.0731296187919 7.5267758930346 5.9752401462032 6.2721432184712 7.4066254795487 6.5794515509214 6.3776752627981 7.3756293802256 6.3749980230269 6.6232829616035 6.6425855048295 6.9099851327479 5.9880546780386 6.5553847656908 6.2571784534207 8.3516284993929 6.2723472155898 7.8839761787801 7.8171951301497 7.2136570157854 7.2698827508079 6.3953434044212 7.1266547405425 6.9092683202147 8.6067094836736 6.6808130848199 6.5982912152034 7.4924155281974 7.518662589921 8.213523498402 7.115749228711 7.1463852287787 9.1055574657934 5.3992098005749 7.9955659267544 6.6700543885253 7.9024954826055 7.1993598234316 6.9997507854554 7.2620968198501 7.5403633469054 7.3892899158993 8.1560536504325 7.3427887059537 6.5256482659624 8.7483967057731 8.1114609116625 8.7836618853325 8.2473128754922 9.2519126005718 7.5566303916088 8.7819811859046 7.8082164824253 8.5209993945161 7.5948023792754 8.6185798804206 7.7188908159263 8.8643905151525 8.1554148706605 9.0776948309849 7.8024617815019 8.940819144656 8.5300602439084 8.7882646632758 8.328839940925 7.2493463870777 7.9464496957772 8.761543407942 8.1605432802343 7.6850972068581 7.1887520545406 5.0579987233843 7.3770777103085 6.3281434993881 7.9011944320894 7.1457947239702 8.4725999335624 7.4785367035905 8.3415992302464 8.9684729919689 7.5361906595705 7.6815978228231 8.1178097047093 7.7095481006052 8.2866547985243 7.5652456340081 7.423622804325 8.644927979817 7.8471135823611 7.8392133723292 6.5496589111865 8.7250695993471 8.2078246853775 9.3396073412999 7.4665081623256 8.2385606261103 7.7910922419118 8.453923365479 7.7525379578423 7.3654352831493 8.5996134028101 8.1822529609053 6.906301795191 5.7000458698055 7.5711948249169 8.999691964321 8.1890196502485 6.9530292684471 7.1886015342532 7.4385524528281 9.0132095656112 8.4534266862681 5.4806472534607 7.7568714792381 7.4788313482211 5.5965264028313 7.2950896745947 7.9376248110694 5.9411016544716 7.0825598390206 7.5752560917978 7.2541810993874 6.4858602914013 7.418157697924 6.9818839604966 8.1378258100016 7.2680824747383 8.5516039539812 7.8684624867548 7.1734415624068 6.7724338609721 7.4224441915845 8.660412757939 8.8165841404192 7.2537106107273 6.9476913944019 6.4631625185521 8.1924181118254 5.5736995063007 7.7378863991828 7.8289231488702 6.6373901294928 6.0991138202753 6.6250352201454 5.2919561527404 5.3788592728315 8.1982408633232 6.3395006461048 8.321329269128 6.7283563663609 6.2989504298746 6.4798626823047 7.9469426711737 7.038639342412 7.3915272983334 8.0874042160721 7.4181297116119 6.4466246406734 7.921131242101 6.9199317775128 5.477840733341 6.0491456547385 6.3562011973196 7.4523079921347 5.9665605470775 7.9469241073384 8.0070314519167 7.4066807000317 8.0486911713316 8.4120228032791 7.4123958368471 5.5792442237966 7.2207082462388 7.8450232773314 5.2406259039554 8.3695452906336 7.0379401345053 6.6611959673533 8.4182675269611 6.063117015334 7.9552404893708 5.675494233002 8.04794266563 6.0902520669083 7.6411581564756 5.6198633664371 7.4320873232422 5.6967632959949 8.280389248143 5.0625110823107 7.6545221735077 7.6975317914094 5.2826628030002 3.931079140542 6.1681345137221 6.7964590539418 6.8657401356926 5.8291859747521 7.6251516266813 6.1037168642382 8.3714292050205 6.0216963858712 5.8029889998844 7.2501977651002 5.8282425398141 7.017488603606 5.8561762719871 6.5089895105012 6.8157930715771 6.0253689263328 8.2934849395692 6.2166971293388 7.5752915291478 8.1115928171659 6.8591568079286 5.9165197216131 7.0675670504944 5.0468860848053 7.6009154209389 7.990304184681 7.2913570900756 8.1166809802339 7.3055228400108 4.6612724436345 7.9580935955832 5.7324296571032 7.5044851797382 5.5778036272184 7.9645227814501 5.4300846247717 7.3320656113696 7.4508906769875 5.6483968427212 6.6897163495082 7.6378338745839 7.1117789904873 6.7160384071077 6.8275737692779 5.9166285177575 6.6477108352257 5.9260654732077 6.048937673671 7.7914306334138 5.8007233210245 7.1523196837791 4.5177805477577 7.8530371071975 5.372706613582 7.3670088772822 8.034844634419 8.1782303938546 7.0888996464996 9.1385114568825 6.5033364107269 7.5271697617841 6.8693645346419 6.1304427024505 5.1572459818375 6.9684904757809 5.3437999823638 5.0107744394375 5.9129988991572 5.3659119568423 5.9474990678185 5.6084410995372 5.7958158818423 4.2492212436056 5.8706614468454 5.7008886546215 5.8748348839637 6.0906719845546 5.9432786169302 4.944681069452 5.8157972765935 5.7549651170584 5.9472612228368 5.7717429106624 5.3051917902241 5.9065929777617 6.0908547865835 6.0023576902486 7.2996482858901 6.1333906152033 5.6963110914032 5.7630490906022 5.6477154813677 6.1424268130702 5.5211185919256 6.9363374210289 7.5600078125337 7.3717973681058 6.9994259094035 5.3364315054391 6.6131590869483 6.209421504044 7.47034520922 5.8606917927626 5.2872843567341 7.1714971294336 5.940689453793 5.1187130464177 6.0704610978396 6.6524290140104 5.4393643346563 5.4575123303918 6.0430056197742 5.4717453176972 4.5364895216967 5.4813114972048 5.1033070207388 5.1185451009427 4.5550123867245 4.6104473568204 5.9957980492771 4.8734106265845 4.2505321561094 4.0111392508945 3.6694740160976 4.2871054983138 4.4823313445843 6.2757108744794 6.6303676473807 6.125759724854 6.2837249509915 8.6938998998291 5.172709167778 5.9554635359843 5.8089854496693 7.3581374766742 8.021742559162 5.4062400673776 5.6550458778678 6.3340531709619 7.6028701397202 5.9652115407462 5.7560770716386 7.4258177031413 6.1576051808096 4.8940280014677 5.3183119444818 5.321629836624 5.1496643825551 4.3708717899994 5.1495364008656 4.5018625294078 5.7038516477352 6.0945303431625 6.0241083685922 5.1199357172392 5.9564976329964 6.0026643010595 5.6705084467069 5.0891207899354 5.1901969010571 5.12661972302 6.2606325626694 5.1291358974293 3.812890955115 6.345043712676 5.6346386530455 4.8772170830495 4.7689225319351 5.177830815894 4.5908754438547 4.4700220170509 5.68057641772 6.331922425073 6.3643208614911 4.594263646115 3.9515748625418 4.9969834080962 5.8301548568147 5.8673447558104 5.8816969461571 6.1734647635656 5.267566386365 5.4155432739599 4.7870854289885 4.5653079634885 4.1914413090526 4.5416170539651 5.2984974091638 4.1416854505567 3.8061884066138 4.8420567249028 4.1048280136545 4.3920643844551 5.1122880712855 4.4591782835933 5.1113699807852 5.3264468040447 5.8628072842131 5.8895803429759 5.097315317096 5.6370733202186 6.152951190583 5.0825794347934 3.6286551688397 5.8056395852856 5.7878810458019 5.7553185557761 4.6090881724035 5.8637955220051 5.5216390873798 5.4854573944918 5.7136269730551 5.0376765115544 4.4114262816533 5.2562555472084 4.5518072161627 6.3635623694397 6.0514249441621 4.6889856422627 5.4014338422871 4.712497201945 5.2737590824957 5.7559399498791 6.165839863177 4.6904622362345 5.0249064046725 3.821771056827 4.850236664868 4.4199070181687 6.1989939363114 5.1428253856594 5.4258784627438 4.6699285529675 4.2006070032358 5.2988609247902 4.5833317492738 5.2815998119337 4.1656441891941 4.1736268349155 5.8693096992396 4.9051374176063 4.2165696017063 5.7232775276452 4.8277605170155 5.6135877121498 4.3403517562317 4.923204403383 4.929313077756 4.3459725721 5.4561039741469 5.0982667384699 6.2054577040193 5.2882034171555 5.6303756973821 5.52255415978 5.9161459442495 5.7318857035771 5.7875213416272 5.1631663618579 5.9491079061053 5.2760475845359 4.4987146758282 4.1345760807299 4.5421958540322 4.7415074402056 4.6929828784277 4.7811068249223 4.1424369301872 5.4657002181304 5.7977456443983 3.7018603369154 4.4494380589086 5.1271492747029 4.2803448990618 5.4583619959266 4.5785553937162 4.5497119255646 3.8278058393287 4.8893112031494 3.8490812830347 3.9067503692978 4.5690571731951 4.2070805284658 4.7308778203212 5.4355013808875 4.7733315981071 3.8747666103408 4.0910698917704 4.3260849228566 5.2210532290573 5.8454671548578 4.97133123845