# vtk DataFile Version 3.0
d-2__ created by libgimli-v1.1.0
ASCII
DATASET UNSTRUCTURED_GRID
POINTS 570 double
14.5	0	0
14.25	0	0
14.386963504964	-0.201738469428	0
22.399299936458	-0.310870122736	0
22.129824335287	-0.229914148082	0
22.126320781198	-0.518791771445	0
8.472303742627	-0.591754876635	0
8.780507935475	-0.76092407121	0
8.82173151259	-0.349253271447	0
18.663262297679	-0.667179415955	0
18.934786529245	-0.453308328646	0
18.636898038907	-0.29588182328	0
4.016904362632	-0.85330676142	0
4.076038737616	-0.331410355179	0
3.713721571226	-0.470767763626	0
1.89953779852	-0.269343012166	0
1.633800503821	-0.203067612233	0
1.644492760828	-0.441295523531	0
4.368408037607	-0.250833874131	0
4.337474161742	-0.544420985055	0
4.67745607622	-0.378433532554	0
1.406172533733	-0.772361039307	0
1.913288206557	-1.218576310882	0
1.90687689783	-0.651895683444	0
2.5	0	0
2.25	0	0
2.347047126858	-0.185539804102	0
1.374000926997	-0.300418771701	0
1.25	0	0
1.114902662369	-0.201591505098	0
1.067401015567	-0.470108640981	0
5.75	0	0
5.699780065382	-0.324747799653	0
5.924584257371	-0.172748359932	0
0.883560935405	-0.231136840652	0
1	0	0
9	0	0
9.117836368049	-0.253904480787	0
2.625577516194	-0.346770599322	0
17.859079774019	-0.943547525024	0
17.535029634209	-1.703182852412	0
18.338018094476	-1.366069799339	0
19.932263871771	-0.826489183604	0
19.881635677668	-0.346204516721	0
19.622287080959	-0.573770479943	0
1.5	0	0
1.75	0	0
23.25	0	0
23	0	0
23.109690227386	-0.220340974338	0
2.75	0	0
2.142562771237	-0.172460438312	0
2	0	0
23.332392704446	-0.202507275941	0
23.5	0	0
19	0	0
18.75	0	0
18.888143078348	-0.195773419804	0
2.90152418742	-0.185685383897	0
7.612175045312	-0.180627982114	0
7.527150943175	-0.401430797998	0
7.881917737402	-0.30462800112	0
25.630635194756	-0.512020961038	0
25.243766894324	-0.80097755811	0
25.758031115142	-0.952821630144	0
3	0	0
28.84859809239	-0.201276387394	0
29	0	0
28.75	0	0
4	0	0
3.835807353334	-0.199536243303	0
3.106904732949	-0.178783649348	0
29.25	0	0
29.092446172194	-0.305987136665	0
13.5	0	0
13.667851890428	-0.185102765244	0
13.75	0	0
3.75	0	0
14.407363653886	-0.441423674912	0
14.125469935998	-0.279652141152	0
4.25	0	0
5.061980176718	-0.407989246181	0
5.335512032876	-0.269401530321	0
5.113979852892	-0.173834924157	0
11.882046000841	-0.812345557852	0
12.478640631525	-1.146569360669	0
12.244190771573	-0.565936619511	0
3.633270844505	-0.195395238442	0
14	0	0
18.378272976509	-0.514977451159	0
5.5	0	0
9.619519097921	-1.16461851757	0
10.030576753886	-1.587265312651	0
9.961661342999	-1.070235523667	0
5.25	0	0
5	0	0
13.157975569138	-0.830425793913	0
13.83833027638	-1.238601004239	0
13.671302359608	-0.710707966059	0
11.325917093147	-0.8366783502	0
11.612143285947	-0.506264798476	0
6	0	0
7	0	0
6.83842404292	-0.188923754932	0
7.11236984822	-0.391746146843	0
6.631875629497	-0.169178192832	0
6.75	0	0
3.21002197083	-0.595267231049	0
3.445510026908	-0.608065324465	0
3.362318141622	-0.306501255187	0
6.120159502895	-0.164221934939	0
4.538525595924	-0.906226152762	0
13.233775457127	-1.737244787017	0
4.5	0	0
16.138065841822	-0.472802517973	0
16.126746690205	-0.221608117926	0
15.859319180798	-0.326402762318	0
26.080401003391	-0.227842452866	0
26.25	0	0
26	0	0
3.019224421113	-0.401469974918	0
8.234901607028	-0.35771789179	0
8.518285578354	-0.242327591839	0
8.328777073389	-0.153008859619	0
7.25	0	0
7.400656881666	-0.195280611572	0
7.5	0	0
5.385509485898	-0.709154879541	0
5.948697127931	-0.745234910621	0
8.75	0	0
8.5	0	0
8.25	0	0
2.214249105773	-0.404278959534	0
2.896561357202	-0.792481120253	0
9.25	0	0
4.920911116561	-0.192028847294	0
9.651670336652	-0.200847798694	0
9.849824537955	-0.19917205686	0
9.75	0	0
10.095049354068	-0.315754204277	0
10	0	0
3.25	0	0
6.738406513564	-0.710129601907	0
7.121614580011	-0.943026074581	0
11.345829942703	-0.314788260019	0
11.25	0	0
11.104427225455	-0.188863495516	0
6.052412255932	-0.372556729023	0
6.373371846535	-0.274163514827	0
10.25	0	0
10.380281579003	-0.241092027437	0
10.5	0	0
10.75	0	0
10.909079077441	-0.189427130481	0
11	0	0
6.25	0	0
6.5	0	0
4.75	0	0
3.5	0	0
10.672815698565	-0.318467932684	0
10.772487906066	-0.787092734739	0
11.020900486567	-0.439266778492	0
8	0	0
7.75	0	0
11.5	0	0
11.619450354737	-0.231443672836	0
11.75	0	0
8.139317726831	-0.163309591658	0
12.25	0	0
12.158949464947	-0.235415698299	0
12.412455385193	-0.275030800337	0
12.929165084344	-0.221336108042	0
12.686337592177	-0.258437422252	0
12.900449535554	-0.462768612232	0
12.5	0	0
9.405755833308	-0.325979504745	0
9.111697192308	-0.594170467817	0
9.457257345083	-0.753685223931	0
18.101369157139	-0.618560521812	0
18.336839281097	-0.861122419318	0
10.385948631267	-0.570640149046	0
9.5	0	0
13.411260455969	-0.342646276848	0
12.643108055516	-0.590179775368	0
13.137744715761	-0.195204172124	0
13	0	0
21.25	0	0
21.358341816502	-0.326561417551	0
21.5	0	0
13.816492716597	-0.40394453634	0
20.25	0	0
20.423452336785	-0.313445603959	0
20.5	0	0
17.789350393153	-0.390447709085	0
17.987794057246	-0.401472255242	0
17.881276545163	-0.206424156589	0
19.564465692234	-0.270867872644	0
19.290725118801	-0.49926248604	0
16.392319441256	-0.29915360323	0
19.443730892406	-0.923508713428	0
20.457987075478	-0.803203365193	0
20.167450719332	-0.505159975143	0
0.103762538371	-0.253013629949	0
0.267057015134	-0.483604909932	0
0.374713194419	-0.2320817565	0
13.25	0	0
17.415572543912	-0.230682214253	0
17.5	0	0
17.25	0	0
18.108153655084	-0.208141099276	0
18.25	0	0
18	0	0
15.75	0	0
15.544586046819	-0.246453491997	0
15.122708481244	-0.193620038745	0
15.25	0	0
15	0	0
19.75	0	0
24.149237782749	-0.319013340846	0
23.842766599446	-0.577371105011	0
24.183995039967	-0.73159476451	0
13.871646321742	-0.17394291424	0
23.862588150518	-0.245417872715	0
16.84024277193	-0.203626765466	0
16.704049384397	-0.435508179396	0
17.112673188265	-0.38804641709	0
24.75	0	0
24.832880292394	-0.290571430318	0
25	0	0
16.40158555625	-0.755912194683	0
16.850299990829	-0.757941865332	0
17.75	0	0
23.567455674596	-0.325197491724	0
16.25	0	0
16	0	0
22.645812614293	-0.197864648876	0
22.75	0	0
22.5	0	0
16.75	0	0
17	0	0
24	0	0
26.914424714815	-0.337869958787	0
26.621963281699	-0.624626679172	0
26.977877660759	-0.778408201088	0
26.622424322919	-0.264588309935	0
19.34462271879	-0.199329831305	0
19.25	0	0
19.118057075065	-0.225686869553	0
19.5	0	0
26.75	0	0
27	0	0
27.5	0	0
27.604422363523	-0.298869962794	0
27.75	0	0
17.650384190064	-0.227839036584	0
18.343198956448	-0.236734208617	0
18.5	0	0
24.25	0	0
20.143897114391	-0.233773711865	0
25.5	0	0
25.25	0	0
25.344389320279	-0.31693710653	0
21.059546193318	-0.24845941382	0
20	0	0
25.842927934822	-0.248287716678	0
25.75	0	0
25.613904645132	-0.216025146631	0
21	0	0
11.763551406169	-1.481607093928	0
30.981104050195	-0.5526690913	0
30.873880294509	-0.217692518774	0
30.706626759758	-0.34945139905	0
20.75	0	0
20.85240828135	-0.178025243856	0
23.75	0	0
20.66289882074	-0.189089155251	0
30.204950808504	-0.791758966623	0
30.715535843381	-1.149995259266	0
30.543724897762	-0.572259098027	0
30	0	0
30.180216671806	-0.343473673313	0
30.25	0	0
23.229584388362	-0.458653998547	0
29.5	0	0
29.623391954444	-0.322069028408	0
29.75	0	0
21.618913855927	-0.233585823579	0
21.75	0	0
29.348490380579	-0.521100538161	0
29.36294710412	-0.230601226356	0
22	0	0
22.25	0	0
28.25	0	0
28	0	0
28.129259193923	-0.314252106503	0
28.44374413871	-0.484576386004	0
28.100199615755	-0.812038297775	0
28.649230646972	-0.871769248311	0
28.618403654115	-0.227691192115	0
28.5	0	0
28.387848605749	-0.205892081491	0
29.054768525933	-0.708603081552	0
29.344906532636	-0.846887322836	0
26.327430876245	-0.35930637997	0
10.349120516034	-1.04150119828	0
10.894920134778	-1.514321070539	0
24.59640839418	-0.191760546865	0
12.75	0	0
24.5	0	0
13.102881121377	-0.411296235356	0
25.099388239946	-0.214879887129	0
25.97986022697	-0.52841375324	0
24.398993403151	-0.196312410538	0
17.860840746535	-0.577367743328	0
17.566481510048	-0.529340016102	0
26.5	0	0
16.637148248735	-0.188015807345	0
18.183918302467	-0.396443618316	0
27.159348252167	-0.205297590358	0
27.357530053515	-0.198815038154	0
27.25	0	0
15.060354649709	-1.112587998155	0
15.51532665618	-1.043792149387	0
15.178150912169	-0.713100616689	0
10.051363365948	-0.719159376333	0
14.661248691948	-0.27865166374	0
14.75	0	0
27.868836823455	-0.217301839861	0
31	0	0
30.75	0	0
-0.020273477909	-1.415389842481	0
1.054972770973	-1.487485199502	0
0.512583677021	-1.0438154777	0
0.75	0	0
2.361419414365	-0.794513604096	0
29.890297721653	-0.2433406165	0
30.473599299501	-0.238575611274	0
30.5	0	0
30.660802173874	-0.161931182737	0
28.783812899585	-0.467926883932	0
4.937022539393	-0.72440615077	0
6.696914540879	-0.380672503721	0
7.434272221796	-0.695675918868	0
15.339606453815	-0.166204802571	0
15.281953315711	-0.388999642276	0
11.893544445085	-0.335972898148	0
12	0	0
9.753796445798	-0.478866225926	0
7.720012958977	-0.638314519759	0
21.871398197179	-0.313006985103	0
21.615176662754	-0.521922347305	0
21.856785525528	-0.665128848631	0
20.792152536902	-0.448319093295	0
21.109577821412	-0.527879642114	0
21.360297691811	-0.734200004244	0
15.547854961707	-0.580173571081	0
24.496861814148	-0.467031445896	0
25.067351422649	-0.463427753535	0
24.81263825963	-0.684738154192	0
22.865620821195	-0.218348593093	0
23.443705587002	-0.773171720633	0
27.277617447467	-0.489224417775	0
27.863714790534	-0.471681393437	0
26.239117668995	-0.863279739365	0
29.896797054636	-0.547765129844	0
29.612773839625	-0.699757135752	0
29.867172666547	-0.87444432816	0
29.610354212963	-1.521444655905	0
29.59548165142	-1.071765512911	0
29.115129171034	-1.220660174798	0
31.345359428525	-0.458952144926	0
31.144859415042	-0.241304201582	0
15.919565295974	-0.746550096707	0
16.063006820294	-1.289595303187	0
16.5	0	0
14.900855313538	-0.178071167744	0
14.161016743654	-0.72559708689	0
19.011498044983	-0.834202892304	0
16.760433281999	-1.263698818643	0
17.280361389946	-0.931704507314	0
-0.627742252535	-0.296285438777	0
-1	0	0
-1	-0.5	0
0.625738545692	-0.228405936136	0
0.5	0	0
3.313957665883	-0.865581185485	0
3.619156095452	-0.800599314657	0
[...]
CELL_DATA 986
SCALARS 160.00_0.96 double 1
LOOKUP_TABLE default
7.9805037921833 9.8739510162273 8.400144827466 7.1585499554812 6.0956128102262 9.744600404231 8.2720264081512 5.8575770406371 11.296974243257 9.703975824578 8.6209934909592 7.7127336166446 8.8994328897251 16.097613804224 11.261916113167 9.7265232123485 3.6127244226123 9.3202735783444 10.734577131095 11.571817081312 11.319201352612 11.582693327575 10.735452093741 10.391522190027 20.78121899372 9.8825414630044 10.39546895447 6.9908705879753 9.5731438524168 11.186724064563 7.8166130487207 9.000330770817 11.295393929677 10.440776928382 7.363079707604 11.004402982443 9.5343203063418 8.5065275043798 4.7058572459916 6.9781676450204 9.9316247126086 5.4683240985259 8.9163546152422 3.8541755170297 8.2202680156374 7.8246755675348 6.5058583450129 6.781314469496 7.1812509917987 10.356663007768 10.737710924378 8.4294651492594 5.8293495634964 8.2862952358819 6.8073237829716 8.0172808805809 3.7500322805135 10.980767854765 8.459881191169 8.8362929980547 9.7185067933898 8.4295454624798 13.246032954729 11.520450855496 17.453517961702 16.205460607195 7.1542504714248 6.517727053621 12.468050570744 7.7565924203999 13.719262612353 13.158900476543 8.9908976935886 12.470012099627 10.905435258901 7.0098366284037 21.790909644797 9.0517540132217 13.765575943466 13.705258019693 8.8884211580524 5.6069212433401 9.7699982626371 7.3923782473954 10.582637517178 17.039575706732 6.2553579315471 9.5637254276861 18.113247042394 18.667556807021 8.7281084555617 11.405493083352 8.5323208534595 8.5984069472773 10.370293709771 12.840644240274 11.876886394218 11.291815857374 13.794223482949 8.9937050600337 14.931471423782 8.6521374726597 9.5259184642352 15.268047467338 6.1725809978205 4.7635901369418 10.398106300692 11.785376167208 9.4361186969491 13.978954967859 7.2350985784967 12.638204982893 11.080645548445 7.1847104841673 11.193800757439 11.219055953645 9.8163138499946 9.2943565392284 10.059674912525 8.6229954262455 8.0520104225584 11.802150265975 9.7939485313446 6.2806229985123 9.828226346552 9.7472441239178 7.3305378734565 7.0812080431933 10.354953105731 10.556686160125 11.056948910261 9.4657688112765 20.04721608258 8.6895850137969 5.9694870146148 11.170305786471 7.9913283768162 17.832684901888 16.931492688291 8.6696279825779 11.645208018723 9.1683046384181 9.9913800991736 14.371063458502 38.108128316545 24.385853121232 9.4513822998841 5.7772426761914 11.331475131979 7.6089317719973 10.061319281315 10.324911208248 7.2259952299041 9.4149754092064 17.897731042816 13.875339406577 13.314481791604 7.1461935061611 6.5646351495269 8.5202162161775 11.425443068346 10.320056779212 7.241901258333 11.596959410133 12.391801996401 8.629100462739 4.817539639655 8.5195495084221 13.481650419812 15.749420548491 17.188155035503 8.0147715979547 5.3114102789604 6.5121368903799 10.466939099967 16.408928378088 14.040542844768 9.7803982782701 10.827166744318 13.207289986398 11.462749524795 11.461366485295 12.191991852355 7.0654609053394 7.3970815628139 12.538906978388 13.435435133648 11.436019315599 10.434001187351 7.1195198466275 8.3845504945722 5.4010039564554 13.0703537349 4.5832195084673 12.185182787518 13.424527236802 4.3955548104534 17.658839742186 10.96844907108 9.7676277291441 13.097515490151 10.354707530277 8.0193089162245 8.4408161111678 11.461450962974 6.7643661533166 9.3556287308834 13.283016802835 8.6704414062045 12.150240029331 9.409644442569 13.710544058959 10.525834317629 7.3394171557084 6.3973915224651 6.0667032411443 4.1029240421741 9.0217863538802 4.9265451759236 10.149392705366 11.531935730012 9.6099310231261 15.654996588153 10.325317193162 17.15101656788 11.359068995794 11.387589449639 20.215457554025 8.7445507160166 10.795576177423 10.557766705457 4.8819029021373 11.120250571667 11.122238592498 8.2342905893922 11.771624713257 9.4703192993344 6.5600593532873 11.244224274797 9.0432811663236 6.9006532634519 6.5949829300246 11.567857302885 8.0789683554042 8.7279433492696 9.8888650000567 6.7914550173976 9.3945184669689 8.1231070709967 7.8014855369479 6.906189430622 8.1485968719956 6.1583598596056 11.166699838531 12.274364845919 6.8368807867439 9.2961722864184 10.233303315763 8.258885020404 7.0876459776185 8.4137530616518 8.4748528703087 9.8478600819631 8.9255508941225 8.2416674782488 13.676661838705 8.3123295687945 9.5944044740394 8.494591592451 7.8715905861969 8.35242134658 10.995354018051 8.0577588201578 7.3216196556531 14.431533766548 13.834129962298 6.7303733919453 8.5105391304642 10.132095802297 8.8573162111887 8.5054105324503 10.2291470884 14.187448941924 13.118832099804 6.3031206287866 13.701715063838 9.3800474919785 12.20170248043 11.896994526486 10.575361694114 9.0412515722972 8.1866172390634 7.631417140782 10.959375795761 9.8853803936621 17.564686057911 8.3527425105564 14.135975354002 20.864991437776 9.9224771800465 5.6531657463249 10.550218747904 11.093339570992 10.992216372577 5.1087963698277 7.8298986677265 9.8824187497332 10.570450161998 8.9857180084257 11.188103786881 10.915976247752 10.155781512514 6.8190460230975 7.890429595887 10.09580684446 8.4484079276794 14.925446412872 7.6607259546792 7.1964305510365 11.420219911803 11.7898196279 14.581120893635 6.9620762500182 6.5214174391726 9.3341563570097 11.476308193136 13.157945968821 7.6336352687163 6.0148054101616 4.2603650020948 8.8573336127309 7.5949575198767 8.751087474853 12.245515348765 8.9471625993541 10.719666128621 9.353920924307 14.228436045255 9.1048613833095 11.117337034375 4.038305350259 4.2766179909258 11.00086025615 13.047702511426 13.024784010908 12.330343352571 13.177678005397 15.371674524876 13.913845927139 5.8628061816241 9.9782997404484 6.7984516681445 9.5549852175345 4.8203196774171 5.5826625526649 6.2925287104447 5.9092765014121 7.6436124464087 6.943076185753 8.1887188361268 7.271772004604 4.9571291060704 7.5739332926203 8.1587874391706 9.2871558863616 6.5404385389951 5.7830618060424 4.7335577074737 7.1987376417707 11.410852018346 10.777488787036 7.26010437857 6.1233557941644 5.3715158593957 6.6329552673196 7.9425324749689 6.4941795871253 14.788066470805 11.47874313277 4.9018091979833 4.5235298020449 6.0855649110196 9.7414456636438 7.8171024896914 10.2357950927 20.519460499518 9.2829782637623 11.181970760977 6.6838425106402 15.391176248851 9.1649744949242 7.6850098833658 4.5483984859173 10.49433039008 7.766067857997 9.3480756870476 5.7131394859212 9.8175046338275 9.0493034036132 10.055260498172 13.187474993614 13.20608947205 10.269967791142 6.4580464003657 5.028393258244 15.959869374162 4.7457768348413 10.587159590644 11.132352164411 8.2313749962406 14.975109276666 7.7241977071183 8.7799385865075 7.4377257015365 10.312953984804 6.547250329316 5.6519277728598 6.9601653532686 4.6148791376345 6.229512134171 6.5286686175843 14.202277809261 10.792286703588 6.2772987821321 7.9577924141053 7.0373399807918 5.4464830975613 7.0646331750565 8.8885318266137 7.6720407329829 8.4154166996599 12.470591462642 11.264434720198 8.2852599197147 8.7643793282113 10.024576580386 4.700191341347 7.3107648566166 4.5891666241514 7.4619164475207 4.6914324411353 7.2492418354873 12.571344998782 11.394483110442 4.5850652306861 9.1607553555394 3.5165630731982 11.325866705401 5.8745550067686 6.8251729023901 9.9067191743525 12.544524251074 10.996099002808 6.5114745930556 5.2892989411569 3.4457348540418 6.012513320394 10.666595523926 8.118758630634 8.3945391845553 7.4368117427613 8.0582016069638 8.1537890069454 7.0920099738522 6.9618330473783 4.4517257939997 5.6329242698579 6.6330627818063 5.1453869944606 4.5249020005124 5.2608717356992 8.7599749159336 6.4803951291797 4.4756602097534 4.0317545951149 11.545031987703 7.8654113341491 7.0295648773385 6.5319294451684 4.7753072631233 5.9719433920034 4.7202701199638 4.2385065342256 13.747788760619 8.9563784838197 6.6732392199781 7.4499765717466 13.266675357987 8.1497177497489 7.6643276578865 3.7440179840181 9.7553460074055 9.4401398650854 13.366464836982 5.6411369018609 4.7840588704386 4.2280242314059 3.2574014134028 6.3094690341977 7.7403357895773 5.5190640979463 5.8158412602604 4.0014318558967 5.3956787823996 8.0159021865048 10.846305244155 4.7036205055512 11.24358130935 11.07089256552 3.3582100368011 9.8052579853224 13.656202080359 10.221027721629 4.3760327535913 9.1174584815164 6.5736362905888 5.5194777677129 5.1507988770201 4.1755603027607 11.491778005793 11.449889923613 4.0275982807161 8.8782167884467 6.2640377397739 4.8835198770348 5.1576973124595 3.7518513691397 11.399242812648 9.9173107918979 9.2783844576806 6.0619124158491 8.8379256460706 8.3245949120675 8.1464418279167 5.803390581094 8.6785057275257 12.19808126545 10.763584160744 4.603295683476 3.6275450860095 6.4315741975571 5.4762133574749 7.3634899279279 11.385825321898 4.7222095238046 8.9569403204084 3.2294909081142 4.8688220563133 3.258707706972 3.7607587984758 8.3408692384297 4.8000289971359 7.8555934284339 5.0918346854156 7.7315778284469 7.3278921023366 5.7554380179966 7.4468829979809 4.8157758016537 5.3459678262048 5.8334034192288 5.2981016478519 7.4715106831465 5.3728379135016 6.6656692274478 11.005909860847 4.8833624367142 3.9346018441221 6.2964573187686 5.6279044099865 12.189731638398 4.3738603453627 9.0015879408638 7.0539073524 9.8184488829476 10.053843397992 4.6990527918177 3.0609163673861 8.2216672977378 6.2765929025391 5.9937811141146 5.895331171712 13.253610631839 7.0215240342418 4.5723346153808 6.4792645213021 12.339182075564 8.5504606228812 9.0224792975745 7.3385309357392 8.8088665595394 6.6786070596885 3.372953763794 7.1711986457617 3.5596836502804 8.4754402339282 6.9088326728058 7.440704271286 5.6163704486654 6.5748628530852 7.021436700431 6.8152997124509 6.7381765892759 5.2368817470359 4.1945708811172 3.5702497664591 4.5067480009467 6.2914502812901 9.6170868892292 6.9883035160853 5.8705398010274 5.5392407628312 4.4305961357139 10.361247188375 4.3577848837141 13.545176314103 6.9109894884199 3.5632796484863 9.2751082674433 8.5733839543009 5.3602096188978 8.6349281693596 7.0236107299873 4.8249856243122 5.1789239483347 4.2751654348256 7.6316257516437 7.1280705443717 3.6023257126595 4.3735662327936 3.7989947223212 4.6221193063646 4.0059760151235 10.486672432479 4.0956878691069 8.1279528503143 3.917645239056 4.1801303736919 3.7768648001634 6.4349831950363 3.8166960094295 4.0250455911502 5.9925189999234 3.6233763625786 3.2965598426314 4.9779349393698 10.952831226162 8.7201781592821 6.5606286021871 3.6580032616383 3.9741622448919 4.1826033109923 8.4421076470017 6.9426325791012 7.706486930778 6.0982013606653 10.334275102017 9.0472702924955 4.5348105984642 9.4666847844533 4.8134444777311 9.0264626898869 5.4189037603208 8.2122761356234 9.7619777594177 6.7876505137777 8.530550817609 7.8396320112183 8.523026276741 9.2879137605009 9.6946037899248 7.3725978904339 8.7556876134404 3.7317717192493 5.1076129580979 7.6766558838683 4.0224244082338 9.4546315218738 6.1860291647494 5.1387709997702 5.2741428702586 4.9877630274747 4.2241939518251 4.3436302764658 4.273848364442 3.9403232093366 4.1826800654638 11.480828103356 6.9219123204855 10.536613327207 10.939831346354 4.0729938253142 3.4206951746124 4.0282360959594 4.1901871924513 4.9134388939348 4.8184093541713 4.8386278189155 4.7302047162245 5.8374142676463 5.4919403442906 5.7286432349638 5.3842160079411 5.9302033950008 6.1179156158718 5.1737983341296 4.7987185746127 8.2685524746617 8.016045944841 4.0848062871019 3.2697117457717 3.6017161141569 3.7255710365113 3.3654801074904 6.4433942236272 4.5674112825575 5.7891038617012 5.7949907909782 23.012268465329 19.48581685365 3.2062720826411 3.9530985526087 6.6009225930773 4.9234002181307 3.0157701523124 3.2608744620866 4.3190181853062 6.1903438871987 11.036081126505 5.0176033507062 6.7198225134916 4.0974271399827 4.2238041816964 9.7914208811889 4.3254181774394 6.687804058404 8.4555552247555 3.6968763054091 3.5714539480782 7.1340832616411 7.5828749262741 4.4202679729472 3.4292816075691 3.8056727549286 5.5719293750893 4.0224911018105 4.1839118142272 3.4379126993075 3.3466001739875 3.7740184924128 9.4846343452515 3.6853611570642 5.01225401142 3.7556406622033 4.8655043296985 3.4658248561642 4.163576871172 8.6630184157014 3.2468168687721 5.1637921840123 3.3459383158832 3.2560801285338 4.4367792141503 3.3094983593814 3.4321737497778 3.3192031623802 3.7386662317755 3.548316504371 3.6392607554314 3.3149642217187 6.540168216819 4.2595244179766 3.2313342846601 3.7195903771698 4.3503108084364 4.0082010771319 6.382458218899 6.4253807280645 7.3538455274809 6.7698199596507 5.8201038254462 6.3734522885532 5.2290500746894 5.7849718119885 6.8450547306704 6.3933803986271 4.9943528886598 5.4474800971396 5.336664154642 6.9819031135718 6.1400355736126 3.2239763343287 3.8329789040469 5.0362506260903 3.9988199625754 3.8492340369197 3.3996217060615 3.5485088835272 3.0930836611013 3.7542193695304 3.5035094187647 3.7137963102277 4.011510827931 12.563368877981 3.6735628838389 4.1670617530831 4.1334895864166 12.154857194913 7.904653147157 3.3970939207618 3.4207529952155 3.3571393251079 3.9766618427792 4.3272067470798 27.003886433839 3.343797036793 3.4260785810896 3.6681339139452 3.4512763757237 4.2785145597933 4.8348611820049 4.4622332403411 4.2557357326335 3.2116205756138 4.3122640263419 3.5533412607049 3.1892491118446 3.4290152818927 3.3265477966926 3.0615912220501 3.6929187234376 4.120430149821 3.3707326976334 3.3830720334264 2.9687003095178 3.0640075698386 2.9378701353636 3.2839567358331 3.4134657697277 3.4848387555786 3.7319882706586 4.8407196018371 4.6234526635586 3.2945467308704 3.2723417063422 3.4117990695924 3.8895505226968 3.3670113976583 3.1531470133284 3.4040393096629 3.3558940696427 3.2779248439526 3.2534176135437 3.1321369056821 3.8593817185973 3.2768148872536 3.6761269331549 3.57439879076 3.464157107825 3.4282551210561 3.3806374518329 3.4083682357059 3.4149118251752 3.0973539282707 2.9890668636633 3.2710206401454 3.1472283072266 3.0392766973535 3.2911351892648 3.3513999570297 3.3225081109407 3.5762718191561 3.4636778973448 3.9588571563136 3.4126716982442 3.5329134801014 3.0872739858146 3.2915797374081 3.4882878372323 3.187497332472 3.5375145860414 3.2712959325272 3.4277294494993 3.8187873517348 3.3371147861053 3.5122030476284 3.4388799296306 3.416172539012 3.2853846107416 4.2822777490517 3.6764108273713 3.5448469307721 3.4024898841021 3.9217224297179 3.4867418252907 4.5240851588376 3.6425380844225 3.5201472647756 3.6587955898997 3.7056122480365 3.2905517809752 3.5275890289188 4.0326921641638 3.8407611185291 3.7229222968287 3.4459073483071 3.4669284730018 3.9213134092086 3.5051789684295 3.9730876024998 4.3811954557162 4.1834715063759 3.972419585675 3.5355731715005 4.1585796234109 3.4992503790455 3.9431589202952 3.4887105777645 3.917058131867 3.7382346309717 4.0713656252364 4.3732324332976 3.766056069837 4.296575568843 4.0222742465437 3.9419235821221 3.744972737766 3.8227797150965 4.0440675212596 4.1970409334801 4.4712152013682 3.7999312246541 3.9107406664165 3.6418626308888 3.6347823331607 3.8689464106951 4.1657859253346 4.2880929753081 4.1917015090451 3.653141864264 4.0104449860695 4.2574686436384 4.068834609845 4.5385366524069 4.1708966005033 3.873521256442 3.8108867854796 3.8172504787527 3.9820379663734 4.0517064834203 3.670463539613 4.0016006592938 4.1658405991305 3.8384064865247 4.0234501326351 3.7927488818887 4.1791650028036 4.1875486214569 4.2958704091464 4.1605827886173 4.4455007392271 4.4602649585647 4.3593961086139 4.3201359937986 4.2888032814577 4.4302948683627 4.4433456461087 4.4337732050904 4.3909459594821 4.2767026183767 3.8512947732223 4.5348268937665 4.3199164341915 4.0430276226558 4.1767033847506 4.3265532341947 4.3964555945628 4.1327384083298 4.2539320645544 4.4739780519702 4.4930183124074 4.6214966949645 4.5977727809536 4.5149057098807 4.6734078781552 4.6366330303797 
SCALARS 20.00_0.14 double 1
LOOKUP_TABLE default