# vtk DataFile Version 3.0
d-2__ created by libgimli-v1.1.0
ASCII
DATASET UNSTRUCTURED_GRID
POINTS 570 double
14.5	0	0
14.25	0	0
14.386963504964	-0.201738469428	0
22.399299936458	-0.310870122736	0
22.129824335287	-0.229914148082	0
22.126320781198	-0.518791771445	0
8.472303742627	-0.591754876635	0
8.780507935475	-0.76092407121	0
8.82173151259	-0.349253271447	0
18.663262297679	-0.667179415955	0
18.934786529245	-0.453308328646	0
18.636898038907	-0.29588182328	0
4.016904362632	-0.85330676142	0
4.076038737616	-0.331410355179	0
3.713721571226	-0.470767763626	0
1.89953779852	-0.269343012166	0
1.633800503821	-0.203067612233	0
1.644492760828	-0.441295523531	0
4.368408037607	-0.250833874131	0
4.337474161742	-0.544420985055	0
4.67745607622	-0.378433532554	0
1.406172533733	-0.772361039307	0
1.913288206557	-1.218576310882	0
1.90687689783	-0.651895683444	0
2.5	0	0
2.25	0	0
2.347047126858	-0.185539804102	0
1.374000926997	-0.300418771701	0
1.25	0	0
1.114902662369	-0.201591505098	0
1.067401015567	-0.470108640981	0
5.75	0	0
5.699780065382	-0.324747799653	0
5.924584257371	-0.172748359932	0
0.883560935405	-0.231136840652	0
1	0	0
9	0	0
9.117836368049	-0.253904480787	0
2.625577516194	-0.346770599322	0
17.859079774019	-0.943547525024	0
17.535029634209	-1.703182852412	0
18.338018094476	-1.366069799339	0
19.932263871771	-0.826489183604	0
19.881635677668	-0.346204516721	0
19.622287080959	-0.573770479943	0
1.5	0	0
1.75	0	0
23.25	0	0
23	0	0
23.109690227386	-0.220340974338	0
2.75	0	0
2.142562771237	-0.172460438312	0
2	0	0
23.332392704446	-0.202507275941	0
23.5	0	0
19	0	0
18.75	0	0
18.888143078348	-0.195773419804	0
2.90152418742	-0.185685383897	0
7.612175045312	-0.180627982114	0
7.527150943175	-0.401430797998	0
7.881917737402	-0.30462800112	0
25.630635194756	-0.512020961038	0
25.243766894324	-0.80097755811	0
25.758031115142	-0.952821630144	0
3	0	0
28.84859809239	-0.201276387394	0
29	0	0
28.75	0	0
4	0	0
3.835807353334	-0.199536243303	0
3.106904732949	-0.178783649348	0
29.25	0	0
29.092446172194	-0.305987136665	0
13.5	0	0
13.667851890428	-0.185102765244	0
13.75	0	0
3.75	0	0
14.407363653886	-0.441423674912	0
14.125469935998	-0.279652141152	0
4.25	0	0
5.061980176718	-0.407989246181	0
5.335512032876	-0.269401530321	0
5.113979852892	-0.173834924157	0
11.882046000841	-0.812345557852	0
12.478640631525	-1.146569360669	0
12.244190771573	-0.565936619511	0
3.633270844505	-0.195395238442	0
14	0	0
18.378272976509	-0.514977451159	0
5.5	0	0
9.619519097921	-1.16461851757	0
10.030576753886	-1.587265312651	0
9.961661342999	-1.070235523667	0
5.25	0	0
5	0	0
13.157975569138	-0.830425793913	0
13.83833027638	-1.238601004239	0
13.671302359608	-0.710707966059	0
11.325917093147	-0.8366783502	0
11.612143285947	-0.506264798476	0
6	0	0
7	0	0
6.83842404292	-0.188923754932	0
7.11236984822	-0.391746146843	0
6.631875629497	-0.169178192832	0
6.75	0	0
3.21002197083	-0.595267231049	0
3.445510026908	-0.608065324465	0
3.362318141622	-0.306501255187	0
6.120159502895	-0.164221934939	0
4.538525595924	-0.906226152762	0
13.233775457127	-1.737244787017	0
4.5	0	0
16.138065841822	-0.472802517973	0
16.126746690205	-0.221608117926	0
15.859319180798	-0.326402762318	0
26.080401003391	-0.227842452866	0
26.25	0	0
26	0	0
3.019224421113	-0.401469974918	0
8.234901607028	-0.35771789179	0
8.518285578354	-0.242327591839	0
8.328777073389	-0.153008859619	0
7.25	0	0
7.400656881666	-0.195280611572	0
7.5	0	0
5.385509485898	-0.709154879541	0
5.948697127931	-0.745234910621	0
8.75	0	0
8.5	0	0
8.25	0	0
2.214249105773	-0.404278959534	0
2.896561357202	-0.792481120253	0
9.25	0	0
4.920911116561	-0.192028847294	0
9.651670336652	-0.200847798694	0
9.849824537955	-0.19917205686	0
9.75	0	0
10.095049354068	-0.315754204277	0
10	0	0
3.25	0	0
6.738406513564	-0.710129601907	0
7.121614580011	-0.943026074581	0
11.345829942703	-0.314788260019	0
11.25	0	0
11.104427225455	-0.188863495516	0
6.052412255932	-0.372556729023	0
6.373371846535	-0.274163514827	0
10.25	0	0
10.380281579003	-0.241092027437	0
10.5	0	0
10.75	0	0
10.909079077441	-0.189427130481	0
11	0	0
6.25	0	0
6.5	0	0
4.75	0	0
3.5	0	0
10.672815698565	-0.318467932684	0
10.772487906066	-0.787092734739	0
11.020900486567	-0.439266778492	0
8	0	0
7.75	0	0
11.5	0	0
11.619450354737	-0.231443672836	0
11.75	0	0
8.139317726831	-0.163309591658	0
12.25	0	0
12.158949464947	-0.235415698299	0
12.412455385193	-0.275030800337	0
12.929165084344	-0.221336108042	0
12.686337592177	-0.258437422252	0
12.900449535554	-0.462768612232	0
12.5	0	0
9.405755833308	-0.325979504745	0
9.111697192308	-0.594170467817	0
9.457257345083	-0.753685223931	0
18.101369157139	-0.618560521812	0
18.336839281097	-0.861122419318	0
10.385948631267	-0.570640149046	0
9.5	0	0
13.411260455969	-0.342646276848	0
12.643108055516	-0.590179775368	0
13.137744715761	-0.195204172124	0
13	0	0
21.25	0	0
21.358341816502	-0.326561417551	0
21.5	0	0
13.816492716597	-0.40394453634	0
20.25	0	0
20.423452336785	-0.313445603959	0
20.5	0	0
17.789350393153	-0.390447709085	0
17.987794057246	-0.401472255242	0
17.881276545163	-0.206424156589	0
19.564465692234	-0.270867872644	0
19.290725118801	-0.49926248604	0
16.392319441256	-0.29915360323	0
19.443730892406	-0.923508713428	0
20.457987075478	-0.803203365193	0
20.167450719332	-0.505159975143	0
0.103762538371	-0.253013629949	0
0.267057015134	-0.483604909932	0
0.374713194419	-0.2320817565	0
13.25	0	0
17.415572543912	-0.230682214253	0
17.5	0	0
17.25	0	0
18.108153655084	-0.208141099276	0
18.25	0	0
18	0	0
15.75	0	0
15.544586046819	-0.246453491997	0
15.122708481244	-0.193620038745	0
15.25	0	0
15	0	0
19.75	0	0
24.149237782749	-0.319013340846	0
23.842766599446	-0.577371105011	0
24.183995039967	-0.73159476451	0
13.871646321742	-0.17394291424	0
23.862588150518	-0.245417872715	0
16.84024277193	-0.203626765466	0
16.704049384397	-0.435508179396	0
17.112673188265	-0.38804641709	0
24.75	0	0
24.832880292394	-0.290571430318	0
25	0	0
16.40158555625	-0.755912194683	0
16.850299990829	-0.757941865332	0
17.75	0	0
23.567455674596	-0.325197491724	0
16.25	0	0
16	0	0
22.645812614293	-0.197864648876	0
22.75	0	0
22.5	0	0
16.75	0	0
17	0	0
24	0	0
26.914424714815	-0.337869958787	0
26.621963281699	-0.624626679172	0
26.977877660759	-0.778408201088	0
26.622424322919	-0.264588309935	0
19.34462271879	-0.199329831305	0
19.25	0	0
19.118057075065	-0.225686869553	0
19.5	0	0
26.75	0	0
27	0	0
27.5	0	0
27.604422363523	-0.298869962794	0
27.75	0	0
17.650384190064	-0.227839036584	0
18.343198956448	-0.236734208617	0
18.5	0	0
24.25	0	0
20.143897114391	-0.233773711865	0
25.5	0	0
25.25	0	0
25.344389320279	-0.31693710653	0
21.059546193318	-0.24845941382	0
20	0	0
25.842927934822	-0.248287716678	0
25.75	0	0
25.613904645132	-0.216025146631	0
21	0	0
11.763551406169	-1.481607093928	0
30.981104050195	-0.5526690913	0
30.873880294509	-0.217692518774	0
30.706626759758	-0.34945139905	0
20.75	0	0
20.85240828135	-0.178025243856	0
23.75	0	0
20.66289882074	-0.189089155251	0
30.204950808504	-0.791758966623	0
30.715535843381	-1.149995259266	0
30.543724897762	-0.572259098027	0
30	0	0
30.180216671806	-0.343473673313	0
30.25	0	0
23.229584388362	-0.458653998547	0
29.5	0	0
29.623391954444	-0.322069028408	0
29.75	0	0
21.618913855927	-0.233585823579	0
21.75	0	0
29.348490380579	-0.521100538161	0
29.36294710412	-0.230601226356	0
22	0	0
22.25	0	0
28.25	0	0
28	0	0
28.129259193923	-0.314252106503	0
28.44374413871	-0.484576386004	0
28.100199615755	-0.812038297775	0
28.649230646972	-0.871769248311	0
28.618403654115	-0.227691192115	0
28.5	0	0
28.387848605749	-0.205892081491	0
29.054768525933	-0.708603081552	0
29.344906532636	-0.846887322836	0
26.327430876245	-0.35930637997	0
10.349120516034	-1.04150119828	0
10.894920134778	-1.514321070539	0
24.59640839418	-0.191760546865	0
12.75	0	0
24.5	0	0
13.102881121377	-0.411296235356	0
25.099388239946	-0.214879887129	0
25.97986022697	-0.52841375324	0
24.398993403151	-0.196312410538	0
17.860840746535	-0.577367743328	0
17.566481510048	-0.529340016102	0
26.5	0	0
16.637148248735	-0.188015807345	0
18.183918302467	-0.396443618316	0
27.159348252167	-0.205297590358	0
27.357530053515	-0.198815038154	0
27.25	0	0
15.060354649709	-1.112587998155	0
15.51532665618	-1.043792149387	0
15.178150912169	-0.713100616689	0
10.051363365948	-0.719159376333	0
14.661248691948	-0.27865166374	0
14.75	0	0
27.868836823455	-0.217301839861	0
31	0	0
30.75	0	0
-0.020273477909	-1.415389842481	0
1.054972770973	-1.487485199502	0
0.512583677021	-1.0438154777	0
0.75	0	0
2.361419414365	-0.794513604096	0
29.890297721653	-0.2433406165	0
30.473599299501	-0.238575611274	0
30.5	0	0
30.660802173874	-0.161931182737	0
28.783812899585	-0.467926883932	0
4.937022539393	-0.72440615077	0
6.696914540879	-0.380672503721	0
7.434272221796	-0.695675918868	0
15.339606453815	-0.166204802571	0
15.281953315711	-0.388999642276	0
11.893544445085	-0.335972898148	0
12	0	0
9.753796445798	-0.478866225926	0
7.720012958977	-0.638314519759	0
21.871398197179	-0.313006985103	0
21.615176662754	-0.521922347305	0
21.856785525528	-0.665128848631	0
20.792152536902	-0.448319093295	0
21.109577821412	-0.527879642114	0
21.360297691811	-0.734200004244	0
15.547854961707	-0.580173571081	0
24.496861814148	-0.467031445896	0
25.067351422649	-0.463427753535	0
24.81263825963	-0.684738154192	0
22.865620821195	-0.218348593093	0
23.443705587002	-0.773171720633	0
27.277617447467	-0.489224417775	0
27.863714790534	-0.471681393437	0
26.239117668995	-0.863279739365	0
29.896797054636	-0.547765129844	0
29.612773839625	-0.699757135752	0
29.867172666547	-0.87444432816	0
29.610354212963	-1.521444655905	0
29.59548165142	-1.071765512911	0
29.115129171034	-1.220660174798	0
31.345359428525	-0.458952144926	0
31.144859415042	-0.241304201582	0
15.919565295974	-0.746550096707	0
16.063006820294	-1.289595303187	0
16.5	0	0
14.900855313538	-0.178071167744	0
14.161016743654	-0.72559708689	0
19.011498044983	-0.834202892304	0
16.760433281999	-1.263698818643	0
17.280361389946	-0.931704507314	0
-0.627742252535	-0.296285438777	0
-1	0	0
-1	-0.5	0
0.625738545692	-0.228405936136	0
0.5	0	0
3.313957665883	-0.865581185485	0
3.619156095452	-0.800599314657	0
[...]
CELL_DATA 986
SCALARS 100.00_0.25 double 1
LOOKUP_TABLE default
11.42770583324 10.105913163701 8.5026009294979 8.7188363568784 7.6793687057558 10.218216243693 9.1152774776062 6.0264509916619 11.443410193844 9.7945088702715 9.2687004113542 11.715705479734 10.126310889485 11.363271663303 11.260323097303 10.19281085352 4.8882059089355 8.3211411766806 12.306452312248 12.928182379635 11.404085487551 11.533235197849 13.180708196033 10.952335395351 10.598079141965 10.876760639435 10.752684733667 6.5808263219955 11.223474203388 11.256833205157 10.202731304646 10.656141673526 11.208648466586 11.777185555043 10.056021535731 10.657474812396 10.742447906655 10.098011474218 6.981395808225 10.197593734722 12.847244798784 8.6470946278218 11.071304381916 5.2616700146793 10.979315266078 10.775338846738 6.8078012685749 7.9265609930262 11.994452724084 9.7016397839459 10.822069010421 9.9600283041705 7.6337584377279 11.072520145149 7.5378156317452 11.853851813113 5.235182325413 11.299966502384 10.477118150909 10.251969583479 11.226400908394 9.6552395428825 11.286370972872 12.27703995791 11.780766786164 11.492329322674 8.0051810633475 8.212442443583 11.34879935098 9.4951385350055 11.673293902581 11.794325342958 11.282215415908 11.779939004183 10.807960780965 7.9849123318821 10.679329406932 11.12407991252 11.255662077138 11.349794476207 10.073269288093 7.4463314505706 11.659556081952 9.9353754934354 12.210919658811 13.363686294308 10.733109681993 11.951470248722 11.608442406732 10.809915031068 11.18672158771 11.720539437078 9.7999083303843 10.424184679077 9.5364294884499 12.554293361092 12.033083534799 12.000425881174 11.440105417684 11.841657951684 10.545590078862 12.851981325913 10.470319293451 10.791405496266 8.6620607203535 7.7784402190227 10.383757019525 10.370620789876 8.7066322118566 10.467485746583 9.7381147320847 11.652311321559 10.011206168657 10.5918699554 9.6059326014624 14.473149605763 10.17172970382 11.689526130124 9.2797399367162 10.539852933735 7.7144817560686 12.076657518191 8.8032436964882 9.1144566419519 9.8603163747753 11.619760158744 8.9624930448854 9.3636401988638 12.030813682676 11.310446295142 10.584586335086 12.106597129148 11.759606354655 11.212250740928 7.9526925394211 10.838033709817 9.300740525025 11.103147981102 10.320406956141 8.3875007770265 11.137404773788 9.0807552772489 11.902919581147 11.318023468376 14.344612418043 12.480404639131 10.597949690816 7.3682779795327 9.8462485285805 8.5681669206749 11.260733910891 11.536191739938 10.319550937004 11.417107810119 10.456355582911 11.216279914352 11.399262727685 10.615380616912 9.9289496073775 9.6603757347938 12.737792038557 10.761599794881 10.744457849676 12.807536932627 11.632306941765 11.131145498181 6.0232211318613 9.2595062803653 12.281403278528 9.9393020365888 12.245841841147 11.680097345064 6.4342862119372 8.9125378989928 10.832611157095 9.9909729511848 12.01833835902 11.69436234242 9.6302239364213 10.592104604022 12.992698192434 11.531254645369 11.49553537424 7.1314205784731 7.0428960613969 12.091349455934 10.98508806559 11.911573099551 9.8653831523455 7.5222432006059 8.6244331426032 6.0245518423216 10.035208096218 7.0639065152491 10.690220758511 10.707316322357 6.9572935318161 11.285447333433 11.392525709178 9.7879145368508 11.135507094909 9.7601054514596 11.242528681841 10.975577078512 11.100361335025 8.10739111276 10.821945421904 10.248899205859 11.359197513081 11.686928379384 10.095880545422 10.844457659236 9.6974376088711 10.053897719365 10.415134386 10.544011134636 7.0295473051053 10.470198281612 6.4231731400991 10.072062008799 10.454720364519 11.948016508305 10.981848307107 12.827208109707 9.9218524976972 11.36031188638 11.021500429856 9.927133276208 8.8833693040453 11.778915979671 10.245172303977 5.1238204543018 11.478476583111 11.043841334988 9.8431477930484 10.962690180279 9.9242770215851 7.0426698317874 10.776945833389 8.9851618666296 9.1545073045692 8.5638773683473 11.622683905031 10.660262681746 9.9138510186215 10.777188897639 10.732314340461 9.9482882037008 9.1574155915783 9.5618665878339 9.153387071561 9.9600698166129 7.4905888016872 10.147122756925 10.648517288613 9.6241492123657 11.766873326814 10.157145182007 11.57277138821 7.6444648961263 10.049416504188 9.8876166081997 11.665833529039 10.502449830901 9.8999908795071 11.938991489304 8.8423580775935 11.937420305295 9.7477065034051 9.9312123172725 9.3995727058837 10.069889456783 10.560364367093 10.359140955453 11.231469408201 11.303370675855 11.316786853352 11.044958489837 10.712527439507 11.496715945225 8.353179239437 11.455822649159 12.570464419013 11.801653118576 7.4115810010356 12.45873975792 10.35103308768 11.836630845964 12.05123511752 10.818429350327 9.2312628775744 8.4931845492389 8.6292135958079 12.514117712901 10.07998669313 10.595093969428 10.27304382143 11.050920909234 11.086085300678 11.454487452699 8.6942367738764 12.24783247546 11.789433699922 10.222221999069 9.6203307039441 8.5928972273111 10.529990800907 11.407205202503 10.010091951212 10.990830530244 9.9537790659403 11.057781378407 10.034153018519 10.400166047481 10.123294864298 8.6675338059845 11.007370003644 8.2008862395098 9.5822414958101 10.881190182328 9.1325274747291 10.330104645226 10.533112192724 9.9111704413738 9.327449854908 9.2509906689613 12.497944374817 7.5473690469438 7.0148334017779 5.0651203818838 9.015112651981 8.083323662805 9.6389893512371 10.049722471979 9.065749657635 10.0161894101 9.7165659590708 11.502481195758 8.7714736768567 11.275444228886 6.6004988470058 8.2098109116919 12.316173708451 11.882069631979 10.998460045871 9.8008145850321 10.831887845303 10.784695705574 10.390709714196 9.6777931122786 10.431434763742 7.0749107457272 9.8673167628853 6.8927946749648 10.678976539432 6.5280429080137 6.0810743893403 8.2400034191058 8.8491852349714 10.260437780036 10.325710438244 6.3610543854549 7.6221141255762 9.0208129962632 11.21724653365 7.7168641496183 6.640407916762 6.3738771749256 7.2263711050907 11.116393927306 11.83839167318 10.179465506469 8.4625633780958 7.3890761143428 8.8929827001409 10.499568675071 8.3226406759511 11.703630127107 10.168798182737 7.6311278165068 5.8809860077668 9.5573204354205 9.7096018127112 11.917062136923 11.538908000157 10.726474337333 9.7840577148694 11.178583447373 7.3337704342057 12.631879471023 8.9802220778801 8.7962103841307 7.5798009522195 10.385943167563 8.8647805960532 11.57628487675 8.9846982103955 8.8806276184845 11.516409236558 9.7335863281669 11.570014185828 11.697585198677 10.126520377446 9.9147931297392 6.972273131123 11.62524528913 7.549661639769 10.130476792205 10.502344036592 10.583458354965 11.61393700719 9.4949400846733 10.450155979452 8.5280376517513 9.8982115386883 9.9545906905265 8.18454418547 7.7282292442509 6.5848337936255 8.7510526530972 6.421391879984 10.946215863482 9.5763668143933 8.0972136449227 8.1382101065563 10.401126077379 7.7322672123014 7.2251562118371 8.6991700910696 7.1760278432209 7.9815864167872 11.343041651335 9.8776949018803 9.8931334861946 10.068573027925 10.383705978922 5.6696429197775 8.8230859332864 5.3442507457451 8.9412585338792 5.8294980817856 8.2605576129957 11.139079406695 9.8622170532682 6.5625898175743 10.090754281699 4.798207197465 11.069061952349 7.956179726837 8.8557518253612 11.686845375233 11.233065996657 10.678581910614 9.0680440494032 5.6497766476798 4.2423150811732 8.5117740258333 10.554405959937 8.2172940271164 9.5502658415857 7.6501674221024 9.8993925251167 8.5711229713773 9.7642035495318 9.0287794938877 5.5333408492459 6.1474438071571 9.3520807909052 6.574818755614 5.3944989483252 6.8989754337739 10.028489146855 7.0876357141579 5.5753919341263 4.7646652584424 10.553990692322 8.4367682101362 9.7446428329395 8.5707666776168 6.0680302511197 8.2699401422845 6.2335911085155 6.5062937339664 10.931675966431 8.5738492741259 8.4314724976237 8.8576675274769 10.965240976963 7.4106409441788 9.9650144958601 5.2266142901733 8.5364302130645 12.65975667018 11.383047546867 8.8298731397174 6.6626534076953 5.0178268595913 3.7764331236556 7.7015127225173 10.578589090722 7.6584507216447 7.123084949666 6.0130006568959 7.386708041121 8.3330794906414 10.55168850169 5.6876262189732 9.6279741154968 10.562837302612 4.2523728430305 8.8354524634301 12.035148664716 10.71515546917 5.926261154104 8.2043886639901 9.6582814863538 7.0949760984554 6.3228263809915 5.4304426297116 10.324314761756 10.034981330361 5.5946890327242 8.3239340886835 9.4191494286045 6.7283879898152 5.908812707295 5.151457625603 10.181902094391 8.9093124120996 9.1800766496957 7.7036365595654 9.6457056077658 8.3546161237493 9.5283404666891 7.4900874453604 9.365386004189 10.120157222844 9.3810945096914 5.0846321003641 3.2810695458542 10.882638915511 5.9114854221743 11.790130749122 9.1710023291082 5.8068874293223 9.4469552183273 3.8012665376692 7.4013900954416 3.2671740879608 4.3534784119066 9.4227289919144 5.8412446628948 10.542138475892 5.5324135723211 10.241079982859 9.2305402406233 6.5884830061224 9.6831904533948 5.0712618939539 6.1003056193273 7.9329266143254 6.7759851057865 8.2058318858138 5.8960232366364 7.3503137361583 9.4610504608478 5.3318290825287 4.5597503856464 8.8417510472068 7.6811685677433 11.615812685949 8.0523773302891 11.318597170846 7.0446535790889 9.6317670826008 9.7417114425355 6.3376720170222 4.0511823080906 8.2384164532964 7.2224836463052 7.2628357650686 7.424600679631 11.498848097406 9.911834423568 5.203044452449 9.511238544092 10.25743328636 8.2168157458517 8.4821658506784 7.5484594028901 8.2180047478267 7.2478166405615 4.0722481419128 9.2910164898252 4.1451231087318 8.0354922875133 9.3024341878095 9.9736009527284 6.2642369838905 8.2273979343926 9.523447534342 8.4085167699151 7.8161972791533 6.4542065558479 5.0381720045818 4.0466874605023 5.2569294249015 7.5881277673064 9.5024473097977 7.2212318609919 6.1097997508541 7.2753674384401 5.6852805497122 11.626215663241 5.4775738463275 10.981716172867 10.031748380148 3.5795535752115 8.5692096871702 9.2251671845337 9.492954947172 8.3978718335403 7.1340439761689 6.0583906514114 5.9799059680165 5.8039674746651 7.6273834504499 9.3183422152979 3.7934939507449 4.9609439471958 4.383919737149 5.5111096570538 4.8514530745052 8.759480480316 6.5340214689102 8.4526042500221 4.6024116072029 4.9168135410334 5.7596259248057 8.6663683627772 4.2950316257015 4.074492543691 6.7862770392226 5.6899563180428 3.4680772428684 5.7948951647618 10.997850125185 9.6130965941228 7.0860385972189 4.5849845060145 5.2790159961986 4.5123244546904 8.4709740700214 7.4186932011999 7.7840356308749 6.8521899606527 9.9279846984033 9.3179375862277 5.4142160066669 9.3433647289989 5.8735264614445 9.0095562553521 5.3042987834102 8.1944200428786 9.7048143605408 6.7442932343749 8.4762169638231 7.7899668094111 8.6336709849055 9.1321238132883 9.4618977607744 7.4133766184949 8.7829690044344 4.0808429021789 5.5731092842489 9.4396886864385 3.9937574936194 10.383516807907 6.9817746709118 6.5011710955605 6.4048609664043 7.4739804829159 5.6187958672813 4.841087357746 4.9044429583774 4.9295252171347 4.9790102951716 9.6614917906617 12.397116186293 10.970041757973 10.16168327752 4.1146225142817 3.0759968644071 5.5712032867807 6.0852789991382 6.4942379740743 5.5249232084304 6.0649731491489 5.1238579886328 6.4231250245353 6.7763991118633 6.5411453013117 6.3496789066954 6.5913961511673 6.3431047441433 5.9852494970627 4.5733839292528 8.3970730585609 8.0957224927022 4.5334054685328 3.2765831489905 3.2106646732946 3.5481771794228 3.9028934559405 6.8340620944883 6.3106858986597 8.102881187018 6.3208545632926 12.242923509759 11.644832083075 3.9137030134964 4.2866361955812 9.2199385723107 5.6572953095476 3.7914906363908 3.7759953580171 5.2264371733573 7.2586193724379 11.428049847383 7.1520643199214 7.1350622878734 5.7168369688379 5.4531244445928 11.334359852699 4.5540726772599 8.3387948427348 12.344481580875 5.7664381100205 4.0833058535523 9.2501466371784 8.9662819493206 5.1834187447009 4.5154041522298 4.4368363946862 6.5815386617228 3.4012359651902 5.1846344847369 3.4796121536456 3.3364330737594 4.0543674098817 10.480126336405 4.8753908482744 5.5043723281246 4.7524805122369 5.152354781616 4.5068860291704 6.0111669913251 10.9317434858 3.4650624138878 6.0763080330014 3.0338132813126 3.6625718215341 5.0620092350173 4.3711454194403 3.7827197518848 3.5462634332135 3.9999971019547 4.119814033364 5.2976807779322 3.5721096743551 9.917760852292 5.0210533782903 3.520187027194 4.0290924355825 4.8698802225582 4.6989262076082 7.5436422508864 7.1227157585081 9.6237660687705 8.4891095973337 6.7717144184298 7.8027131685065 5.695247622386 6.6787928113473 8.7192512309886 7.8486012810908 5.061587294762 6.1057064490507 5.7458423165062 8.9339146630965 7.2580055881424 3.3818864847664 4.425728698076 5.0119620349244 4.1434908583956 4.2886853370126 3.8955277060525 4.0237730476058 3.6623959659636 4.4392990527074 3.6765335187593 4.4227793830393 4.4757957234479 11.153708487308 4.3662015584429 5.2726827338284 5.0855892889855 11.56750133775 8.0531890108616 3.3615732238024 3.3578702175449 3.4614282274952 4.3412285633822 4.8691503664546 12.865317906958 3.6563357905518 4.1411992332252 4.2913966532744 3.0896856378392 3.6440545407075 5.0078150779141 4.1370973075664 4.0514491718538 3.9969892735588 4.0236965051686 4.0500403382751 3.5244476509461 5.0326944975429 3.3759158583128 3.6482514905321 4.2401114572689 3.3575350116685 3.3418848263452 3.61270706995 3.3045013664082 3.5172570834264 3.4035627453562 3.448858247237 3.4845961852904 4.3578904285953 3.9704799948431 5.2367325762658 5.6088307250018 3.2904314095515 3.1353262208672 3.1064025258022 3.5283157926272 3.0563277553447 3.1735976261604 3.1950615902412 3.1313829935684 3.4657338914487 3.7932949683974 3.367194445526 3.5072987285244 3.2788973385972 3.4177141578947 3.8210164551731 3.7816399333863 3.2350806517896 3.250289785639 3.3589378866718 3.1419076405513 3.240039091212 3.3089515287785 3.3215586179257 3.4482820979201 3.4072998552357 3.020956597922 3.48923207347 3.1118605774589 2.9895568840922 3.1791207537085 3.6200132294227 3.1927527537428 3.0404621435421 3.2231764401325 3.2349176892071 3.2863925187078 3.30515862447 3.3795851762618 3.295408263091 3.1249872196572 3.5260382117492 2.98984775266 3.521127484956 3.2755712869474 3.1031758353722 3.2364774389547 4.0640121543344 3.2879733049485 3.0831064792459 3.2158421975903 3.6191860323658 3.2759881524748 4.1738913254881 3.138953969476 3.1752918138161 3.1163167604327 3.1158994432098 3.2390162492493 3.3122675304307 3.601626657589 3.5977384137392 3.0789512623048 3.3636033641593 3.3328713259331 3.205501345387 3.2718150760648 3.3304785236798 4.1677510308561 3.3814832444514 3.2926787154009 3.0851310443805 3.7584556678804 3.2769689624091 3.7171101290803 3.3646712367381 3.591681674461 3.0482501860075 3.3519429779606 3.6938260334112 3.1297661702502 3.5292085094904 3.7775391093251 3.426679090554 3.4294754913309 3.4633780719704 3.7513725738456 3.5657793118743 4.0397370868764 3.4815770278474 3.3608100009857 3.2743750766637 3.1374321377818 3.3997167193191 3.3514067929461 4.1326008369681 4.0393514565026 3.4727563907369 3.7734771944436 3.6751357804033 3.754420698025 4.3923579908811 3.8927011690427 3.5640173605106 3.007593773881 3.5329723060492 3.6816661508664 3.301373245258 3.3911241545024 3.3126266194001 3.89470919626 3.4694452887362 3.683668710024 3.3321620925672 3.7555815468969 3.6324364197774 4.0807458724886 3.9886773765795 4.4478870161314 3.9193019221043 3.8984705291402 3.7440879486657 3.9252294420413 4.00172265104 3.813352374601 4.1557819864561 4.2495503810961 3.9421997766572 3.5796296439048 4.4171298090685 3.7450592289621 3.2721605046119 3.6802782884705 3.9379343580108 4.4063331986681 4.002512475765 4.2026969515773 4.5863633962711 4.3969746255171 4.5058863559279 4.5653466700113 4.2459708457816 4.6226632573763 4.5269907668878 
SCALARS 200.00_0.30 double 1
LOOKUP_TABLE default