# vtk DataFile Version 3.0
d-2__ created by libgimli-v1.0.12
ASCII
DATASET UNSTRUCTURED_GRID
POINTS 1303 double
5.625	0	0
5.511811217919	-0.146388704457	0
5.676386535709	-0.13519637448	0
0.25	0	0
0.175228502521	-0.179050409113	0
0.326009290428	-0.144330725415	0
0.375	0	0
0.990207725992	-0.114957291708	0
0.841075314552	-0.137634199948	0
0.926498288371	-0.349340723189	0
-0.001071200562	-0.386156929004	0
-0.003317641763	-0.130454088023	0
-0.192720422374	-0.216308252768	0
1.25	0	0
1.175215748534	-0.200562384647	0
1.341115762259	-0.128605193971	0
1.375	0	0
2.25	0	0
2.168494514827	-0.19848886597	0
2.338304607341	-0.128945294536	0
2.375	0	0
1.911268305082	-0.334701951691	0
1.986191885908	-0.110806668109	0
1.838390258011	-0.128853462534	0
1.75	0	0
1.670105949089	-0.197137117999	0
2.986685504441	-0.10889534818	0
2.838723720416	-0.127406828384	0
2.912854264006	-0.329775839393	0
0.75	0	0
0.664572693147	-0.222613872306	0
3.25	0	0
3.168798596028	-0.193682232199	0
3.337828500197	-0.125181208794	0
2.875	0	0
2.75	0	0
4.25	0	0
4.161099470995	-0.193412132741	0
4.332718836325	-0.127723897736	0
3.83511440706	-0.12403687807	0
3.875	0	0
3.75	0	0
3.901908238995	-0.321557035295	0
3.983050435256	-0.106770030737	0
3.665527023987	-0.190866765849	0
5.25	0	0
5.164693411436	-0.21656556845	0
5.338419985376	-0.147288917438	0
4.834321952324	-0.135810575609	0
4.875	0	0
4.75	0	0
6.25	0	0
6.178399669611	-0.137425451145	0
6.356205370496	-0.193853696818	0
5.817814980918	-0.161175429964	0
5.875	0	0
5.75	0	0
6.611939839541	-0.314381537706	0
6.522886280605	-0.104721203126	0
6.75	0	0
6.669178832877	-0.119404962711	0
6.836073690852	-0.177498311423	0
5.39059629209	-0.37339102075	0
4.660917359886	-0.204007052252	0
4.902096977384	-0.356327271651	0
14.897042426984	-0.319128540459	0
14.98121339776	-0.105010975498	0
14.832720105416	-0.123004000492	0
2.669265824618	-0.196872625129	0
7.656019919505	-0.144451020927	0
7.75	0	0
7.625	0	0
6.625	0	0
8.75	0	0
8.672937461928	-0.164309120831	0
8.834289374889	-0.109279841483	0
8.206809119751	-0.294811800109	0
8.187056112549	-0.110869448227	0
8.024316200302	-0.129362764133	0
7.157390904024	-0.111206354394	0
7.25	0	0
7.125	0	0
8.25	0	0
8.125	0	0
9.75	0	0
9.651145885459	-0.185384966231	0
9.827054067621	-0.122428024454	0
9.381816956327	-0.305807769915	0
9.476753337472	-0.101567493772	0
9.327490061855	-0.116748040282	0
10.75	0	0
10.655660803951	-0.196164841752	0
10.830485405183	-0.127989131147	0
10.386748323888	-0.329675548046	0
10.478464938155	-0.108955040137	0
10.328560245085	-0.126395562242	0
9.25	0	0
9.375	0	0
10.25	0	0
10.15270392044	-0.192469144253	0
8.328856990144	-0.128933011689	0
8.375	0	0
9.153857570119	-0.175508527296	0
11.75	0	0
11.660624577581	-0.201812344528	0
11.833823570609	-0.131890823957	0
11.395399221028	-0.337817920558	0
11.481219500696	-0.111845889235	0
11.331881500183	-0.129806070652	0
12.75	0	0
12.669299873111	-0.199190799603	0
12.839534650452	-0.128328673855	0
12.40897914742	-0.340185307353	0
12.485654611126	-0.112072117633	0
12.336727606385	-0.131188239877	0
11.875	0	0
12.25	0	0
12.164627546098	-0.202605127067	0
13.75	0	0
13.669268468008	-0.186168180444	0
13.837322273199	-0.120178339978	0
13.416957459915	-0.319650485848	0
13.487510959619	-0.105281058988	0
13.34010202956	-0.123833443479	0
14.75	0	0
14.66080663422	-0.189613659871	0
14.399926333663	-0.319306441484	0
14.4823067449	-0.105599641009	0
14.334114343934	-0.12250571155	0
14.875	0	0
15.25	0	0
15.158227025815	-0.185762723401	0
15.330441202311	-0.11956675178	0
13.875	0	0
14.25	0	0
14.163960939829	-0.186365139356	0
12.875	0	0
13.25	0	0
13.171786689458	-0.193064330135	0
10.875	0	0
11.25	0	0
11.158129238503	-0.198418008741	0
7.31587636932	-0.171642077952	0
15.3902841013	-0.308450173235	0
15.478958243586	-0.102394874489	0
-0.125	0	0
0.125	0	0
0	0	0
-1	0	0
-0.706889652808	-0.331752981492	0
-0.5	0	0
1.125	0	0
1	0	0
1.625	0	0
2.125	0	0
2	0	0
1.5	0	0
1.488007132967	-0.109900770852	0
0.5	0	0
0.474245721096	-0.130043839003	0
0.625	0	0
3.125	0	0
3	0	0
3.625	0	0
4.125	0	0
4	0	0
3.5	0	0
3.485533411273	-0.107014956798	0
5.67736414417	-0.368119689468	0
5.125	0	0
5	0	0
4.98353533542	-0.118243061674	0
6.125	0	0
6	0	0
6.009467825362	-0.139471566496	0
6.5	0	0
4.625	0	0
5.5	0	0
4.5	0	0
4.481603306259	-0.111052305129	0
2.5	0	0
2.486482293556	-0.110456056597	0
2.625	0	0
7.828740664136	-0.157959666613	0
7.5	0	0
7.497789303332	-0.098817221798	0
8.625	0	0
8.5	0	0
8.493725508365	-0.094448160765	0
8	0	0
10.625	0	0
9.625	0	0
9.5	0	0
9.125	0	0
10.5	0	0
10	0	0
9.976983002093	-0.106037154081	0
10.125	0	0
9	0	0
8.980258705317	-0.095443922293	0
12.625	0	0
11.625	0	0
11.5	0	0
13.625	0	0
12.5	0	0
12	0	0
11.983083448534	-0.113269018621	0
12.125	0	0
15.125	0	0
13.5	0	0
13.125	0	0
14.625	0	0
14.5	0	0
15	0	0
11.125	0	0
14	0	0
13.984735949845	-0.103165953766	0
14.125	0	0
13	0	0
12.987740386932	-0.109238757727	0
11	0	0
10.980033547654	-0.110118532971	0
7	0	0
7.012790729926	-0.096165366155	0
15.625	0	0
15.653391866104	-0.184257106926	0
15.75	0	0
16.25	0	0
16.151956269841	-0.190746813766	0
16.328162175541	-0.125534698515	0
15.827345422636	-0.12109528269	0
15.881623705918	-0.315197408181	0
15.9768075603	-0.104841845177	0
17.25	0	0
17.155473725888	-0.187015736188	0
17.328334720487	-0.12053442359	0
17.375	0	0
16.97978281674	-0.105790715925	0
16.830585534618	-0.124270763258	0
16.892220832712	-0.321708894118	0
16.75	0	0
16.655725821363	-0.19281499559	0
18.25	0	0
18.144056513649	-0.199584109463	0
18.322695877645	-0.133173012767	0
18.375	0	0
19.25	0	0
19.156955168382	-0.212194778097	0
19.332395147696	-0.137501625504	0
19.375	0	0
18.978107771567	-0.118463258117	0
18.827251646435	-0.137822523984	0
18.884674261801	-0.359498065923	0
18.75	0	0
18.648603260315	-0.210400354993	0
17.973004229039	-0.108213471414	0
17.823362138939	-0.124125311933	0
17.87020700187	-0.324156104502	0
17.75	0	0
17.64837652944	-0.187413016584	0
20.25	0	0
20.167288289523	-0.206556633625	0
20.33799343326	-0.133667464393	0
20.375	0	0
21.25	0	0
21.172020853715	-0.201327641466	0
21.340729826518	-0.130206344264	0
20.875	0	0
20.75	0	0
20.839555732676	-0.132066213667	0
20.987710400762	-0.112937783384	0
20.915843633601	-0.342386775443	0
20.669904108595	-0.203936882105	0
22.25	0	0
22.168893714495	-0.194483818359	0
22.337089427477	-0.126591453251	0
21.875	0	0
21.75	0	0
21.840184239699	-0.127666317168	0
23.25	0	0
23.162361450448	-0.215073727418	0
23.335945395372	-0.148199257458	0
22.875	0	0
22.75	0	0
22.83504078106	-0.133126573368	0
27.412614995451	-0.337768305098	0
27.406417478875	-0.760610856776	0
27.663031754041	-0.476449210851	0
23.674319496044	-0.139602731619	0
23.75	0	0
23.625	0	0
22.902876337082	-0.348446434986	0
22.664415839639	-0.19979598046	0
21.987454968006	-0.109075483352	0
21.916658702332	-0.330379709848	0
21.67241042914	-0.19774510361	0
19.984830323221	-0.115851903278	0
19.835879034474	-0.135573032779	0
19.906686139011	-0.351521653308	0
19.75	0	0
19.663378765328	-0.209646647928	0
24.75	0	0
24.672305039303	-0.121865624882	0
24.84054616259	-0.178479133746	0
24.25	0	0
24.125	0	0
24.179559510218	-0.145425217914	0
25.656694723316	-0.141492417978	0
25.75	0	0
25.625	0	0
25.25	0	0
25.125	0	0
25.159224348757	-0.109007087058	0
22.647257188685	-0.476376729768	0
22.872248033711	-0.780455516934	0
25.317652966423	-0.167196322239	0
31.908525182248	-0.237434634112	0
32.248547795208	-0.367887731521	0
32.025	0	0
26.398062594932	-0.327144710524	0
26.335089901602	-0.124890632532	0
26.169730315141	-0.188549564961	0
26.75	0	0
26.662500836065	-0.197477656933	0
26.835401004001	-0.129534360312	0
26.375	0	0
26.25	0	0
27.486869476066	-0.111474770432	0
27.338367230812	-0.130187170762	0
23.816158307302	-0.168335740772	0
23.875	0	0
24.625	0	0
27.75	0	0
27.67023663024	-0.198727549038	0
27.839431305592	-0.128541986375	0
27.375	0	0
27.25	0	0
28.75	0	0
28.666013303123	-0.192953151514	0
28.835335299513	-0.125393524551	0
28.875	0	0
28.41074998604	-0.32692743598	0
28.485854239984	-0.108071323096	0
28.338261561589	-0.126341817439	0
28.25	0	0
28.169650699531	-0.195402875109	0
29.75	0	0
29.656991685033	-0.201213204108	0
29.830700495316	-0.13323291855	0
29.875	0	0
30.75	0	0
30.665605116896	-0.213760177502	0
30.837855425721	-0.139272404211	0
30.875	0	0
30.987248292653	-0.119871959545	0
30.911614165903	-0.362389547989	0
31.25	0	0
31.174363802618	-0.217041176186	0
31.346460135447	-0.143418487957	0
30.400599561582	-0.360265197586	0
30.483280501431	-0.118794220148	0
30.3336351656	-0.137924489201	0
30.25	0	0
30.159375273254	-0.21004086356	0
29.392934647931	-0.331414044449	0
29.48031118177	-0.110263057575	0
29.331777210358	-0.127344913482	0
29.25	0	0
29.160548153072	-0.194064979946	0
27.167334579456	-0.200440763045	0
24.359650796728	-0.20304719459	0
-0.25	0	0
-0.404335947278	-0.221464959739	0
16.125	0	0
16	0	0
17.125	0	0
17	0	0
16.5	0	0
16.478267427857	-0.108008273171	0
16.625	0	0
18.125	0	0
18	0	0
19.125	0	0
19	0	0
18.5	0	0
18.473681471998	-0.115768873419	0
18.625	0	0
17.5	0	0
17.47687846862	-0.103462148239	0
17.625	0	0
20.125	0	0
20	0	0
21.125	0	0
21	0	0
20.5	0	0
20.486446843971	-0.114298370976	0
20.625	0	0
22.125	0	0
22	0	0
23.125	0	0
23	0	0
22.983281399654	-0.116385827149	0
23.5	0	0
23.509214189908	-0.149359691049	0
22.625	0	0
22.5	0	0
22.48467632496	-0.1093719097	0
21.5	0	0
21.488472844532	-0.111208801785	0
21.625	0	0
19.5	0	0
19.482219828947	-0.117572233456	0
19.625	0	0
24.5	0	0
24.525433875838	-0.108080714825	0
25.824234283709	-0.149177038136	0
25.5	0	0
25.498573523516	-0.096586408813	0
25	0	0
25.014769107289	-0.095147895568	0
21.919931345447	-0.741308582321	0
22.160361550711	-0.463896476278	0
26.625	0	0
26.5	0	0
26.482631880244	-0.108512805864	0
27.625	0	0
27.5	0	0
27	0	0
26.984612185119	-0.111680714924	0
27.125	0	0
26.125	0	0
26	0	0
25.990349817319	-0.10847866492	0
28.125	0	0
28.625	0	0
28.5	0	0
30.625	0	0
29.625	0	0
29.5	0	0
29	0	0
28.983089608831	-0.107750428826	0
29.125	0	0
30.125	0	0
30.5	0	0
31.63125	0	0
31.5	0	0
31.494696987447	-0.123712578064	0
23.671261205816	-0.380102168636	0
31	0	0
31.125	0	0
30	0	0
29.980228243528	-0.115525062547	0
28	0	0
[...]
CELL_DATA 2263
SCALARS 1600.00_0.61 double 1
LOOKUP_TABLE default
10.290734030372 8.0087154724606 8.0887798382079 8.3231029299663 8.1666653860257 7.8441109713116 7.892143206806 9.7229534891269 9.7130686750008 10.090730700452 10.483393305336 9.3350154601239 8.361570737268 8.6975416167247 9.6218370589542 9.8160489149477 9.1372274267114 9.0806576936727 9.120832956976 9.5144061519672 9.9945802541808 9.2319821652351 10.312126547822 8.9479179493549 8.6882076588511 9.5197833753307 10.363536492637 9.5240726241717 9.883906684566 10.280322052331 9.6274040426998 10.766115333791 8.6232214210246 10.059693357153 9.9701298636226 10.12987204125 9.9647618579106 9.8969579100382 9.4478505563146 11.396327577552 10.579151501225 9.091703711767 10.715401172687 10.133629374905 9.1372082888512 9.8247482693729 10.376530916969 9.8105305965553 9.4590341571965 9.7755906075846 9.3897221650382 9.9646452652217 10.246507268464 10.554830573993 10.382094705358 10.598497600968 9.7572993370994 9.9010812213684 10.705144971177 9.8974412384371 10.155317081232 11.573403915686 10.423390535263 10.183841637372 10.008089616201 8.4437580378904 8.1184775823409 7.8726244908873 7.8149261729937 8.2074858877444 10.490637679774 10.296171133807 9.6234407645366 9.8782214561926 8.4775916382499 7.9236936781702 8.8268006372863 9.2911678956446 9.1980805116148 9.6382731735176 9.1434998386394 9.854308008717 9.9420640770239 9.781823309667 10.294678219116 9.6512910294376 8.8192022776515 9.888034014702 10.26071267245 9.9298198019483 9.9094730886371 9.5259264521202 9.8836769443334 8.3928124771949 10.739883801113 10.665233653014 10.020217306156 10.223367746513 10.197762736606 10.063551740388 11.317472869021 9.8619790271931 9.215921215966 11.08020760283 10.448603932787 10.726776079424 9.7319106691965 9.9910393301394 9.7870778995136 10.3821407087 10.076077758805 9.7546369756639 9.7338907421801 9.4595327099232 9.7658923737978 10.362428648535 10.13792335 10.640677828931 10.104303525822 10.483863532354 10.648583170571 10.850912214537 10.16997024195 10.613502729842 10.984702312143 9.9778571055409 9.7999495165516 9.7519121562081 10.676286227139 10.281705161022 10.242049085768 9.2077351597957 9.2330418991412 10.769283146928 11.334933988846 9.1839539155593 9.1642046843949 9.4982768273826 9.5475954195646 9.2400663376655 9.1553729031724 9.4264649393467 9.3414603787571 11.25993765865 11.441106037681 9.1483597176433 9.993750470233 9.9720075278503 9.9351652527836 10.516249823333 9.7067245316716 10.747889047525 9.4157633269504 7.6753224624975 8.8403559807593 9.3592089533514 9.4401102057625 9.8086174281305 9.7489744896058 10.076416788431 9.9886445707023 9.4609734059155 8.5586178570553 10.58330864434 10.101455950526 7.9682335824863 9.9844354822754 7.5316506354762 9.2021926392348 8.7826857535307 9.5809181047248 9.1053049710447 8.8661868927631 9.5295816379999 9.5653825377333 8.9353470506668 9.331887285504 9.8972197031402 9.9737242404924 9.5123266340316 9.5057707801095 9.0910744985064 9.0967247469743 8.4501097896283 8.5058283463672 8.4191356145641 7.9066969004756 7.9934051601252 7.7922960621504 9.2057508251164 9.2634172794035 9.2653758877872 8.5976738701597 8.2871595476556 10.383657409256 10.342856358744 10.034725306594 10.686727401372 10.555171200044 11.197274461726 9.5043547274129 9.5189737998423 9.552213021283 9.3164171496514 9.2857292155875 9.4902901064235 9.209894436826 9.3623739361868 10.87434849035 9.2260571999141 9.8142729801433 10.55758002175 11.273995585375 10.712015463695 10.550259576665 8.8273956931102 10.522291684845 9.4167447756071 9.558455656395 10.037756269151 10.965702044806 9.9525709028426 9.950505572124 9.9949455068107 9.1880081120716 10.011044302761 9.5510280741032 10.416540142229 10.445468197846 10.088402500318 8.2004317276472 8.8083400065055 9.1258691272505 8.9728232098306 9.2009060594508 9.2063629890846 9.6769741899493 9.9360759013175 9.4531526757471 9.8523628998447 8.4372274904487 9.3530974241156 9.6178708904199 9.1872142963396 7.8592464101102 8.3365556934221 9.2789033999374 8.2581621961337 8.8170534949088 8.41724556395 9.3070504527905 8.4400747902787 8.0143758643834 9.3080527992522 9.9031554708232 8.8218434823012 9.896256188601 7.9808353231337 10.466834915075 7.9918772752453 9.0856742717237 8.4072045289202 8.0258298439337 8.6922924010158 10.025703062147 9.8157948383511 10.108712249188 10.500403906625 8.4616365106379 8.4015753481527 9.0433133912486 8.8780150465202 9.7036936019162 9.9764161215904 9.1842821207998 9.3512565714839 9.6031899385346 9.9800173222431 8.8093961889409 9.1075125489637 7.7890307278831 9.3990160236519 9.4429422145639 10.022146395202 9.8154239362378 10.012938094723 9.7926688426388 9.5106306318644 10.657096330252 10.130646777848 10.05996396839 10.217022238197 10.328967812202 10.001146037752 10.081948108788 11.107338977931 11.482906965679 10.563815935177 11.006963677925 9.4885953515447 9.4424630117566 10.187465699556 9.7951192932399 9.7644378912048 10.128853780344 9.5939198407388 9.6304213264839 10.252176489462 10.177345812339 10.563697087404 10.434428085145 9.9022186887079 10.078847105312 10.772076812733 10.640449622544 10.147121469727 10.373525525309 10.673161776658 10.510443507238 10.15444778213 10.564915636014 8.2038930066797 10.609291064575 10.37637931159 10.305400614888 10.49418873346 9.5258296037992 9.4818231201296 10.81729125517 11.084672396778 9.4231643368742 9.2872720280765 9.5430897361485 9.8250536660125 9.2618881742588 9.4207761072358 9.4685342082123 9.4944949950809 11.002801344125 11.219892320147 9.552396766935 9.5341451063355 10.169483355545 10.096712232982 10.634992592618 10.314032628126 10.708860457361 10.203461654275 9.0164454066472 9.0079923565138 9.7615135282505 9.8525807516599 10.00123880246 10.048365556472 10.002304389907 10.452666680219 10.490758077141 9.7649705710467 9.9223365694533 10.157214224252 9.400718364667 10.109777958844 8.9066673024658 9.0934036401456 9.7156866532796 9.4148156287271 9.0471622752238 9.1895231591938 9.8292152659116 9.8980443433043 9.3438336346894 9.8296987186161 9.2478461692459 8.8837247140508 8.403456018783 8.5677864304426 8.2392834679857 7.9877210425319 8.1220840082893 8.1253614288276 9.4114721640992 9.4109399443235 9.2184694006696 9.3446250096084 8.8764085020707 9.2035943713381 7.9268723917842 8.4313823987019 8.1518754025491 8.4188856013132 8.2390221426596 7.8092067864595 8.3775692002477 8.8937150190848 10.582844805635 8.6582940207381 8.1750305897281 8.5186875718213 8.2789508278571 8.243878579896 8.4184578641138 9.9145163347457 8.5186383645241 9.5922882747923 9.0643237544938 8.7548667945589 9.3684369317362 9.2842682479576 9.3588817525887 7.9573011445696 9.4767066965211 10.85151107606 9.6811171442456 5.791312088834 9.1588832100275 9.5708844567879 9.8022188127295 9.5624451184513 10.326515929888 10.098450458768 10.102816372062 9.8724353078411 9.5063826984756 9.7716054607387 9.3259218632792 9.9105615572259 10.828905400065 9.500411447705 9.7004517390883 9.9000367045531 9.9220340385434 9.9803953461752 10.438564311246 9.0570737161883 9.4059350027959 9.7634996796655 10.181997563727 9.6921777455859 10.212996372762 9.6699398258307 10.696633371908 9.7661552588992 10.254700850803 10.510388304428 10.222628461563 10.095097417249 9.5096223049978 9.9081398944822 10.580634344677 11.114128287058 8.8128287485173 9.9984752626076 9.6797415053495 10.341960366078 10.237750438199 10.180366725091 11.578329923001 8.8950424991214 10.071389046977 10.145341208547 9.3461886292206 8.7564858190722 9.1823030630635 9.3727792260115 9.3774263220304 9.1655622814825 10.070824497863 9.474093740721 10.051820365393 9.1057362153341 9.1155279220007 10.506658022455 10.219937728369 10.739823787258 9.1402055069591 10.79727664727 9.6512058892741 9.1445892369613 9.5805362738097 9.7804439281873 9.9691944944121 10.02546862412 9.7523811532984 9.4882851315539 9.2859095153968 9.5819206713753 9.8015321082949 10.419198944888 8.6004916552843 8.8470207742598 8.7278107003871 7.9311176011155 8.9472672970243 8.9833112106157 9.0071009591091 9.8663093444639 8.3589205867066 8.948947360432 9.6307935947901 8.456092142213 8.9335590667932 8.9684629786418 9.3045590518361 7.7252676059004 7.7975562686446 7.8258499562219 8.1205919769479 7.768468843069 9.0794482187973 8.7511649848255 9.5031864489489 9.6640355938421 9.2071973168452 8.6703277049324 9.8333774659152 8.6759864412711 7.836651494176 8.020907803396 7.8203426925418 7.2063367712468 8.1054764238368 8.2478947913368 8.1229320281766 8.1974720943109 9.4379545407159 9.722451204982 9.9264286075177 10.502626963094 8.2370909062659 8.4142899428746 8.6339463810677 8.7280953927387 9.3935213934081 9.8911166867924 8.9109633123212 9.1775172774486 7.7308001530046 9.7106838236423 9.0233211530102 9.2495590028085 7.1765778018072 8.8129207894829 9.0881070519827 10.149511583745 8.7091679240179 9.9868497818309 9.293230098976 9.5650601913578 9.9994220850492 10.753818269333 10.26578541217 10.120177798588 9.2079343120533 10.24731900414 9.7620861519452 9.9172351857274 10.959947767927 11.535755891546 10.349710405135 10.848219300652 9.3178237108831 9.2438385643018 9.6677583539188 9.7806468962775 9.6932657059972 9.9908725986989 9.3051529873756 9.4904726584816 9.974064150763 9.985440955205 10.232082936237 10.524168600956 9.8559830614024 9.8893511042848 10.312263907111 10.616835110935 10.08049929559 10.292453524786 10.309046748008 10.485088703927 9.1596760624729 10.327933888672 10.261789935314 10.408007613707 10.005656063695 10.342630576776 9.3837064944347 9.3791821000027 10.721252725437 11.39839483345 9.0908387994796 9.2117012422932 9.3727930283124 9.6490864433316 9.0749960371196 9.278853436502 9.3579845913856 9.4244188963396 10.586445973435 11.330816582428 9.2985339994486 9.2936879088628 9.8417792422816 10.085745544849 9.9639466653627 10.382820236588 8.8380431696726 10.493085509879 7.5521250486342 8.9525107338889 8.9191739914718 9.5463500618192 9.5973388506398 9.7976644744957 9.8079802896517 10.170670286869 7.3456580792215 9.4647627607249 9.3338291584736 10.218945171012 8.4250742246053 9.9426595094038 8.887076890656 8.9349530879549 8.1732236953018 9.4921501635747 8.8037879030489 9.0494153039243 9.5917025471042 9.9355319929249 9.3020293882394 9.692950382837 8.7859070580338 9.0169322089079 8.2988811322633 8.5470456734391 7.9257854017331 7.8889089903842 7.8401844045069 7.9378607449235 9.1185762891595 9.3433356863685 8.9926054906761 9.3261682178755 8.2739542516575 8.6985964797893 7.9854582766366 9.1562969053673 7.4513519389701 9.4754198550328 8.8244694289364 8.8449563620917 7.9366681737546 8.672493011198 7.2032429368738 7.7564296583288 8.6981733584732 9.4396234000631 8.5820974530426 8.236339570159 8.3127887185879 8.3391787116721 9.727186553794 9.6443624141178 8.7788832191954 9.8698174235597 8.8281311443646 10.401378329985 8.0090171376183 9.8931884179864 9.9800144471744 10.203205461037 7.9524734317235 8.7437249786398 8.7195210796171 10.022471700038 10.67258013406 10.030001759687 8.6579973954819 9.6702997410844 9.2528098597188 10.741865780975 10.036770282853 9.5354447309868 9.3209121636974 9.4595146671245 8.5982762087536 7.9078066449391 8.5108682309456 9.9476930998838 9.1297683962969 10.277003082163 8.2734729210899 8.9693158768943 9.1007581848359 10.034544138344 9.0701648308666 9.8862195680039 9.6684980894569 9.5468933475088 8.9923412018177 9.733886630504 8.5531194614558 9.5080125443691 9.135830731538 9.9915233154438 8.9175822474155 9.2458489885984 9.2589866053563 9.4999419788288 9.1947830210924 9.5076712330069 9.3437116091948 9.1231490491147 8.8558994662098 9.6225607830674 8.0811910408709 9.6492604341725 8.79172116521 10.250503422726 7.9370470845475 8.6249978769699 8.8246580010277 9.2175699974643 8.4004506366901 9.6688875106273 9.0041833638262 9.7035653300774 8.3618523343145 9.3632235393192 9.834323508884 7.4635171640175 8.9344002482536 5.3704202492957 7.823673398465 7.3822344666204 6.9960815871777 8.6204606063066 7.5155640599772 9.0403274903851 8.0857017720613 9.0391849391807 6.9540919470666 9.4866903851397 9.6009164098642 8.8468115857382 9.2253195252319 8.8649036994102 9.7708252785279 9.015964920118 9.258777238297 8.6019047584429 8.3728986651751 9.3962548831485 8.9819757979418 8.3428609141087 8.345886760668 8.5719203997862 7.5074241867068 8.2905608839706 7.2161665602227 8.029443914449 6.8488742786911 7.3956675700646 7.0642874915137 7.7571330506963 8.2497447903224 8.8052523759102 8.6780793694143 9.70319077447 7.6806615156158 7.944655792758 7.3289516416837 7.2760689987707 8.7566819225685 8.0733218348246 6.7609036182141 7.1418197374612 7.8758394669468 7.9234022536113 7.647642351269 7.7436541856849 5.8773675094356 7.6412214331737 7.3187142553125 8.8691645863965 7.0901646581297 7.8273710405005 7.9736192003556 7.7729092606598 7.2350137797438 7.2725743474854 6.8334523051755 8.3526677982424 10.084002536569 7.6679324650061 7.6740338946101 8.6619403742883 8.4190068838998 9.3724423370649 8.2881270001666 7.9687063559307 10.010258107255 5.2096706361015 8.9494558162697 7.686194344226 8.7523070377968 7.8584330469382 7.7830925834096 7.2424896457349 7.9417047538705 8.6974506766483 8.796094885681 8.6505250464085 7.118433665297 9.5480582962545 8.8602476030304 9.3887041452866 8.9354912365933 9.785206297607 8.9046672948815 9.3281650555362 9.2675619452567 8.9035102613561 8.3757114464537 9.331618725043 8.3307765900264 9.6920028063733 9.8656567058188 9.7207019881302 9.1313486552921 9.7102468118521 9.0929652311298 9.5818192320972 8.9843436369189 7.7910079355319 8.4084145042419 9.8820063202998 8.9971940228342 8.26534514133 7.665289514424 5.1688451617372 7.7940811014249 6.9345182371853 9.5355093342379 8.6338356742975 9.49875540767 9.3260367225975 8.9445100808539 9.7595408469451 8.3986695468734 9.0640933520807 8.8555101429163 8.6098762354587 8.3273534106655 8.7779307434133 7.9927859082904 9.1370918664138 8.5243132380227 8.283112946321 7.3002104260323 9.2860516091589 8.6079040087051 9.4533651055349 8.3175380089855 8.7576187242781 8.2746923447122 9.1375958162945 8.5948692358825 8.2075683378923 9.4731087665081 9.0095387367108 7.4262333370139 5.8052615602265 7.9315375644752 9.085330999369 8.2597758936212 7.361958660359 7.5652398526595 8.0906447954999 9.9751704925654 9.0316970213435 5.7862194085657 8.1274232805702 8.0746032222086 5.7988150928953 8.2131332742186 8.6646025197738 5.5328014551843 8.3387594487914 8.1755382324149 7.7841921605588 7.122409199274 7.6122867031748 7.0951699288268 8.3352191138076 7.2992689441005 8.7168422432903 8.003568402358 7.6151449643453 6.6288135521574 8.8830730379208 9.5665641852609 10.110123711194 7.857357590084 7.4494648971477 6.6395337227829 8.8822792789598 5.5488561306514 7.6765895025692 9.2329144147444 6.9427529787058 5.6257319443395 6.6196765590926 4.4553655233134 5.6707817685994 8.5441454869736 6.9722797597391 8.8635695421974 7.2120435639562 6.3317490147901 6.6105780986139 9.3802796287812 8.0710445694577 8.5796765296496 9.2107699777574 8.0211970331964 7.1081045900875 9.6470930356037 7.2349843045145 5.400369887762 5.3959817132351 5.7278381657372 7.803070559943 6.1892522027459 8.6465025740206 8.6891293216893 8.7342731882578 8.7116916863123 9.1228876073098 8.1700284572267 5.744880306377 7.8435630639846 8.3797972921511 5.4653301340115 8.9897783763516 8.7007801394086 6.9670366418422 9.0779071047198 6.3219070653061 8.4853053334047 5.8324082769493 8.7022241223605 6.4218875227277 8.1843682070223 5.6590139977507 7.9896425972527 5.8394335649314 9.1500251007533 4.9417185474773 8.3320096667038 8.1693968485585 5.4279225241721 3.3203992799023 6.6630973349816 7.7416060755197 7.0194355269526 6.5333499177562 8.1853119159978 7.1728534676982 8.9122905543085 6.8180239176521 6.187057202309 8.3151778317958 6.837604143181 8.0056979146225 5.8806516804697 6.8064366935617 7.6253679104302 6.2475766218771 8.7683469833193 6.6046888818756 8.1026459353353 8.3799438264796 7.0404666260422 6.0694605234044 7.3519905298162 5.2228424209279 8.1640837224987 8.4395320139617 7.5362389516477 8.7979386120412 8.2197165128633 4.4889407338749 8.3616292597756 5.8271990278985 7.5656229861707 5.8102158860992 8.1611049898956 5.7747755054948 7.4728427749121 7.9596491954701 5.7642161030307 7.5900026397038 8.2184577684831 7.7632002744708 7.6554806940813 7.2718449515906 6.7109222196097 6.6469223451643 5.4609882851832 6.3478625301972 7.8749988308927 6.0636908491278 7.1166472533112 4.1511577160103 8.201554775212 5.5786045013887 7.5363646564402 8.676230458734 8.957155857075 7.6933414843705 9.5610481365985 7.1155062244412 7.8818949848204 7.4077798514048 6.4052799309779 5.2304193021317 7.3351044379576 5.5579816437943 5.0175868501986 5.8449630588511 5.2161253228352 7.5731276709014 5.8081698361595 5.4255516913196 3.8136585392968 6.7846255340881 6.5098340164233 7.4466112006967 7.0007963537991 6.3126425200076 4.6072624670161 5.3802599066069 7.1576586321453 6.646048760747 6.9321227386842 5.2477058909317 7.292569990873 6.8041008370995 6.720630975129 7.9405085400982 5.7223472241677 6.9366940991043 5.8689768550196 6.7281684449156 6.7311628619723 5.7006169889855 7.9651935439704 8.713322062122 8.1299954600233 7.1303346692409 5.4830107817049 7.0165259664167 6.8373197948345 8.3725539777739 6.1819163593713 5.4140391950588 8.0675684117823 6.2106000499342 5.1326628046175 6.0940123885484 6.9586458591854 5.2993496156916 5.5177860060824 6.122824867824 5.7830890030187 4.4259843026265 5.4682368612386 4.9312181200311 5.2298473279934 4.4024204894343 4.3330030754878 6.0751218576107 4.9027321005813 3.9533727560188 3.8301174686161 3.1481166502277 3.7858573466011 4.122343431699 6.8732757150781 6.9602197507996 6.3717655116264 6.5680917422286 9.7706142807112 5.3721102555816 6.233015079754 5.8249400300218 7.7745755965641 8.4621401432827 5.3769067284251 5.7355790298852 6.5178871786722 7.8958639385347 6.065671300448 5.8963593163078 7.7003297082974 6.2809784154614 4.8962021709635 5.4018273856292 5.6421924263688 5.1769584191869 4.3032172848576 5.2357981241793 4.5229758001465 5.1631037960791 5.8337823402825 6.2137137867281 4.6665862304099 5.326653330271 6.8609271320468 6.0743683674959 4.7977775658099 5.2997628300608 4.998298479408 6.4737869245708 5.2068169331491 3.5692278554701 5.6971605770568 4.809927836845 4.1373572810463 4.7427347769757 5.6270475542892 4.393282324921 4.2472099303494 6.0707516754015 6.6103791359237 6.6059930074986 4.2744260987554 3.3083574322214 4.8804506607678 5.9997255028659 5.9657653865756 5.980910334838 6.4177908483394 5.2699879298056 5.422950993721 4.6817852413254 4.4434135170279 3.901985867005 4.4216732134287 5.4058348210403 3.846124420354 3.6715574533525 4.7775854961694 3.974120152009 4.3373544569174 4.5728170501613 4.4722519419289 5.3334732015663 4.8461716939127 5.8083011398169 5.7093992085233 4.5599917249491 4.8277460745643 5.4313757603164 4.3398911055982 3.3184887706498 6.3242696743852 6.3428895364027 7.205111725012 4.2608046465019 6.0286799944986 5.7712084828685 5.7997822621585 5.3890041740925 4.603945869178 4.1434839122695 5.3844687987469 4.1880878576265 6.6900539732974 7.2281368125684 4.6519654341767 5.3946158192352 3.9588946756862 5.8200464702307 6.6068197601357 6.3726848986214 4.3935569834943 4.9087277994846 3.0824553208919 4.6607556670929 4.0002012871814 6.3950879973124 4.9658785582027 5.4352592102465 4.5016090900078 3.9018080241223 5.2332482922132 4.4240479392324 5.3490588323683 3.7716497370744 3.879156339772 5.91071693753 4.7669840353356 4.1262791249204 5.2838401525518 4.8439534146193 5.7783303446502 3.7483203397361 4.9163512122967 4.2743391770193 3.8378170162502 5.1240564355405 4.834030357874 6.1910253067807 5.0204300139416 5.7655895685338 5.7275565309099 6.684384068646 6.944244035094 7.2164718765188 4.9774534309683 6.1033796711857 5.4624919225777 4.3913682501915 3.8525435899415 4.4753885529418 4.1171072787272 4.7063199642421 4.718255383443 3.7805880106527 5.5015401111782 6.0747167526148 3.4616498985124 4.0797431796376 5.4715193215141 3.9065036259472 5.4275897944708 4.2576604089512 4.2488655170536 3.2641470681982 4.689911639092 3.2879141621818 3.4384707765509 4.4116361950207 3.9135722071416 4.570445959562 5.441911850885 4.604477802783 3.4853853457988 3.8287304108417 4.2226870858714 5.0153194520658 5.8617