# vtk DataFile Version 3.0
d-2__ created by libgimli-v1.1.0
ASCII
DATASET UNSTRUCTURED_GRID
POINTS 570 double
14.5	0	0
14.25	0	0
14.386963504964	-0.201738469428	0
22.399299936458	-0.310870122736	0
22.129824335287	-0.229914148082	0
22.126320781198	-0.518791771445	0
8.472303742627	-0.591754876635	0
8.780507935475	-0.76092407121	0
8.82173151259	-0.349253271447	0
18.663262297679	-0.667179415955	0
18.934786529245	-0.453308328646	0
18.636898038907	-0.29588182328	0
4.016904362632	-0.85330676142	0
4.076038737616	-0.331410355179	0
3.713721571226	-0.470767763626	0
1.89953779852	-0.269343012166	0
1.633800503821	-0.203067612233	0
1.644492760828	-0.441295523531	0
4.368408037607	-0.250833874131	0
4.337474161742	-0.544420985055	0
4.67745607622	-0.378433532554	0
1.406172533733	-0.772361039307	0
1.913288206557	-1.218576310882	0
1.90687689783	-0.651895683444	0
2.5	0	0
2.25	0	0
2.347047126858	-0.185539804102	0
1.374000926997	-0.300418771701	0
1.25	0	0
1.114902662369	-0.201591505098	0
1.067401015567	-0.470108640981	0
5.75	0	0
5.699780065382	-0.324747799653	0
5.924584257371	-0.172748359932	0
0.883560935405	-0.231136840652	0
1	0	0
9	0	0
9.117836368049	-0.253904480787	0
2.625577516194	-0.346770599322	0
17.859079774019	-0.943547525024	0
17.535029634209	-1.703182852412	0
18.338018094476	-1.366069799339	0
19.932263871771	-0.826489183604	0
19.881635677668	-0.346204516721	0
19.622287080959	-0.573770479943	0
1.5	0	0
1.75	0	0
23.25	0	0
23	0	0
23.109690227386	-0.220340974338	0
2.75	0	0
2.142562771237	-0.172460438312	0
2	0	0
23.332392704446	-0.202507275941	0
23.5	0	0
19	0	0
18.75	0	0
18.888143078348	-0.195773419804	0
2.90152418742	-0.185685383897	0
7.612175045312	-0.180627982114	0
7.527150943175	-0.401430797998	0
7.881917737402	-0.30462800112	0
25.630635194756	-0.512020961038	0
25.243766894324	-0.80097755811	0
25.758031115142	-0.952821630144	0
3	0	0
28.84859809239	-0.201276387394	0
29	0	0
28.75	0	0
4	0	0
3.835807353334	-0.199536243303	0
3.106904732949	-0.178783649348	0
29.25	0	0
29.092446172194	-0.305987136665	0
13.5	0	0
13.667851890428	-0.185102765244	0
13.75	0	0
3.75	0	0
14.407363653886	-0.441423674912	0
14.125469935998	-0.279652141152	0
4.25	0	0
5.061980176718	-0.407989246181	0
5.335512032876	-0.269401530321	0
5.113979852892	-0.173834924157	0
11.882046000841	-0.812345557852	0
12.478640631525	-1.146569360669	0
12.244190771573	-0.565936619511	0
3.633270844505	-0.195395238442	0
14	0	0
18.378272976509	-0.514977451159	0
5.5	0	0
9.619519097921	-1.16461851757	0
10.030576753886	-1.587265312651	0
9.961661342999	-1.070235523667	0
5.25	0	0
5	0	0
13.157975569138	-0.830425793913	0
13.83833027638	-1.238601004239	0
13.671302359608	-0.710707966059	0
11.325917093147	-0.8366783502	0
11.612143285947	-0.506264798476	0
6	0	0
7	0	0
6.83842404292	-0.188923754932	0
7.11236984822	-0.391746146843	0
6.631875629497	-0.169178192832	0
6.75	0	0
3.21002197083	-0.595267231049	0
3.445510026908	-0.608065324465	0
3.362318141622	-0.306501255187	0
6.120159502895	-0.164221934939	0
4.538525595924	-0.906226152762	0
13.233775457127	-1.737244787017	0
4.5	0	0
16.138065841822	-0.472802517973	0
16.126746690205	-0.221608117926	0
15.859319180798	-0.326402762318	0
26.080401003391	-0.227842452866	0
26.25	0	0
26	0	0
3.019224421113	-0.401469974918	0
8.234901607028	-0.35771789179	0
8.518285578354	-0.242327591839	0
8.328777073389	-0.153008859619	0
7.25	0	0
7.400656881666	-0.195280611572	0
7.5	0	0
5.385509485898	-0.709154879541	0
5.948697127931	-0.745234910621	0
8.75	0	0
8.5	0	0
8.25	0	0
2.214249105773	-0.404278959534	0
2.896561357202	-0.792481120253	0
9.25	0	0
4.920911116561	-0.192028847294	0
9.651670336652	-0.200847798694	0
9.849824537955	-0.19917205686	0
9.75	0	0
10.095049354068	-0.315754204277	0
10	0	0
3.25	0	0
6.738406513564	-0.710129601907	0
7.121614580011	-0.943026074581	0
11.345829942703	-0.314788260019	0
11.25	0	0
11.104427225455	-0.188863495516	0
6.052412255932	-0.372556729023	0
6.373371846535	-0.274163514827	0
10.25	0	0
10.380281579003	-0.241092027437	0
10.5	0	0
10.75	0	0
10.909079077441	-0.189427130481	0
11	0	0
6.25	0	0
6.5	0	0
4.75	0	0
3.5	0	0
10.672815698565	-0.318467932684	0
10.772487906066	-0.787092734739	0
11.020900486567	-0.439266778492	0
8	0	0
7.75	0	0
11.5	0	0
11.619450354737	-0.231443672836	0
11.75	0	0
8.139317726831	-0.163309591658	0
12.25	0	0
12.158949464947	-0.235415698299	0
12.412455385193	-0.275030800337	0
12.929165084344	-0.221336108042	0
12.686337592177	-0.258437422252	0
12.900449535554	-0.462768612232	0
12.5	0	0
9.405755833308	-0.325979504745	0
9.111697192308	-0.594170467817	0
9.457257345083	-0.753685223931	0
18.101369157139	-0.618560521812	0
18.336839281097	-0.861122419318	0
10.385948631267	-0.570640149046	0
9.5	0	0
13.411260455969	-0.342646276848	0
12.643108055516	-0.590179775368	0
13.137744715761	-0.195204172124	0
13	0	0
21.25	0	0
21.358341816502	-0.326561417551	0
21.5	0	0
13.816492716597	-0.40394453634	0
20.25	0	0
20.423452336785	-0.313445603959	0
20.5	0	0
17.789350393153	-0.390447709085	0
17.987794057246	-0.401472255242	0
17.881276545163	-0.206424156589	0
19.564465692234	-0.270867872644	0
19.290725118801	-0.49926248604	0
16.392319441256	-0.29915360323	0
19.443730892406	-0.923508713428	0
20.457987075478	-0.803203365193	0
20.167450719332	-0.505159975143	0
0.103762538371	-0.253013629949	0
0.267057015134	-0.483604909932	0
0.374713194419	-0.2320817565	0
13.25	0	0
17.415572543912	-0.230682214253	0
17.5	0	0
17.25	0	0
18.108153655084	-0.208141099276	0
18.25	0	0
18	0	0
15.75	0	0
15.544586046819	-0.246453491997	0
15.122708481244	-0.193620038745	0
15.25	0	0
15	0	0
19.75	0	0
24.149237782749	-0.319013340846	0
23.842766599446	-0.577371105011	0
24.183995039967	-0.73159476451	0
13.871646321742	-0.17394291424	0
23.862588150518	-0.245417872715	0
16.84024277193	-0.203626765466	0
16.704049384397	-0.435508179396	0
17.112673188265	-0.38804641709	0
24.75	0	0
24.832880292394	-0.290571430318	0
25	0	0
16.40158555625	-0.755912194683	0
16.850299990829	-0.757941865332	0
17.75	0	0
23.567455674596	-0.325197491724	0
16.25	0	0
16	0	0
22.645812614293	-0.197864648876	0
22.75	0	0
22.5	0	0
16.75	0	0
17	0	0
24	0	0
26.914424714815	-0.337869958787	0
26.621963281699	-0.624626679172	0
26.977877660759	-0.778408201088	0
26.622424322919	-0.264588309935	0
19.34462271879	-0.199329831305	0
19.25	0	0
19.118057075065	-0.225686869553	0
19.5	0	0
26.75	0	0
27	0	0
27.5	0	0
27.604422363523	-0.298869962794	0
27.75	0	0
17.650384190064	-0.227839036584	0
18.343198956448	-0.236734208617	0
18.5	0	0
24.25	0	0
20.143897114391	-0.233773711865	0
25.5	0	0
25.25	0	0
25.344389320279	-0.31693710653	0
21.059546193318	-0.24845941382	0
20	0	0
25.842927934822	-0.248287716678	0
25.75	0	0
25.613904645132	-0.216025146631	0
21	0	0
11.763551406169	-1.481607093928	0
30.981104050195	-0.5526690913	0
30.873880294509	-0.217692518774	0
30.706626759758	-0.34945139905	0
20.75	0	0
20.85240828135	-0.178025243856	0
23.75	0	0
20.66289882074	-0.189089155251	0
30.204950808504	-0.791758966623	0
30.715535843381	-1.149995259266	0
30.543724897762	-0.572259098027	0
30	0	0
30.180216671806	-0.343473673313	0
30.25	0	0
23.229584388362	-0.458653998547	0
29.5	0	0
29.623391954444	-0.322069028408	0
29.75	0	0
21.618913855927	-0.233585823579	0
21.75	0	0
29.348490380579	-0.521100538161	0
29.36294710412	-0.230601226356	0
22	0	0
22.25	0	0
28.25	0	0
28	0	0
28.129259193923	-0.314252106503	0
28.44374413871	-0.484576386004	0
28.100199615755	-0.812038297775	0
28.649230646972	-0.871769248311	0
28.618403654115	-0.227691192115	0
28.5	0	0
28.387848605749	-0.205892081491	0
29.054768525933	-0.708603081552	0
29.344906532636	-0.846887322836	0
26.327430876245	-0.35930637997	0
10.349120516034	-1.04150119828	0
10.894920134778	-1.514321070539	0
24.59640839418	-0.191760546865	0
12.75	0	0
24.5	0	0
13.102881121377	-0.411296235356	0
25.099388239946	-0.214879887129	0
25.97986022697	-0.52841375324	0
24.398993403151	-0.196312410538	0
17.860840746535	-0.577367743328	0
17.566481510048	-0.529340016102	0
26.5	0	0
16.637148248735	-0.188015807345	0
18.183918302467	-0.396443618316	0
27.159348252167	-0.205297590358	0
27.357530053515	-0.198815038154	0
27.25	0	0
15.060354649709	-1.112587998155	0
15.51532665618	-1.043792149387	0
15.178150912169	-0.713100616689	0
10.051363365948	-0.719159376333	0
14.661248691948	-0.27865166374	0
14.75	0	0
27.868836823455	-0.217301839861	0
31	0	0
30.75	0	0
-0.020273477909	-1.415389842481	0
1.054972770973	-1.487485199502	0
0.512583677021	-1.0438154777	0
0.75	0	0
2.361419414365	-0.794513604096	0
29.890297721653	-0.2433406165	0
30.473599299501	-0.238575611274	0
30.5	0	0
30.660802173874	-0.161931182737	0
28.783812899585	-0.467926883932	0
4.937022539393	-0.72440615077	0
6.696914540879	-0.380672503721	0
7.434272221796	-0.695675918868	0
15.339606453815	-0.166204802571	0
15.281953315711	-0.388999642276	0
11.893544445085	-0.335972898148	0
12	0	0
9.753796445798	-0.478866225926	0
7.720012958977	-0.638314519759	0
21.871398197179	-0.313006985103	0
21.615176662754	-0.521922347305	0
21.856785525528	-0.665128848631	0
20.792152536902	-0.448319093295	0
21.109577821412	-0.527879642114	0
21.360297691811	-0.734200004244	0
15.547854961707	-0.580173571081	0
24.496861814148	-0.467031445896	0
25.067351422649	-0.463427753535	0
24.81263825963	-0.684738154192	0
22.865620821195	-0.218348593093	0
23.443705587002	-0.773171720633	0
27.277617447467	-0.489224417775	0
27.863714790534	-0.471681393437	0
26.239117668995	-0.863279739365	0
29.896797054636	-0.547765129844	0
29.612773839625	-0.699757135752	0
29.867172666547	-0.87444432816	0
29.610354212963	-1.521444655905	0
29.59548165142	-1.071765512911	0
29.115129171034	-1.220660174798	0
31.345359428525	-0.458952144926	0
31.144859415042	-0.241304201582	0
15.919565295974	-0.746550096707	0
16.063006820294	-1.289595303187	0
16.5	0	0
14.900855313538	-0.178071167744	0
14.161016743654	-0.72559708689	0
19.011498044983	-0.834202892304	0
16.760433281999	-1.263698818643	0
17.280361389946	-0.931704507314	0
-0.627742252535	-0.296285438777	0
-1	0	0
-1	-0.5	0
0.625738545692	-0.228405936136	0
0.5	0	0
3.313957665883	-0.865581185485	0
3.619156095452	-0.800599314657	0
[...]
CELL_DATA 986
SCALARS 160.00_0.68 double 1
LOOKUP_TABLE default
11.338511390583 10.151970487977 8.4927253857085 8.7560675446383 7.6182485069505 10.255120718545 9.1325752333094 5.9638409464967 11.599586072821 10.016035729648 9.4065757307757 11.868332840421 10.382425598364 11.583047695932 11.359456863601 10.541688852646 4.8648786105789 8.3047117844274 12.621328001257 13.2503854856 11.507471127447 11.67806151692 13.437468241168 11.122353128258 10.706678356949 10.967480144741 10.857529237563 6.5229865010659 11.41899510475 11.448404016839 10.251164470946 10.785001256637 11.239876203707 12.01370354099 10.12968250947 10.619715613573 10.862417482765 10.151928352943 6.939833522035 10.30563274299 13.215384089684 8.6966175497788 11.239073749508 5.2377935813459 11.212922962945 10.866098049298 6.824581561112 7.909407590055 12.142737980432 9.8209157552809 10.905507666407 9.9557280626889 7.6440662267077 11.118735691848 7.4951527667412 11.983959936441 5.2169430546596 11.458295830911 10.441177805902 10.309644922904 11.469124995926 9.6812076329124 11.40907635819 12.471447338385 11.914193569334 11.587750067824 8.0586045331748 8.247862905631 11.428179046906 9.5921277013151 11.739271037121 11.947489743297 11.41837900447 11.890632072135 10.920425669177 7.9559299994487 10.801091768164 11.200803794774 11.348772203213 11.354299254992 10.14385078608 7.5077610180212 11.805832963375 9.9281980009487 12.245893778588 13.548394078373 10.814970419497 12.033612836868 11.64731640584 10.744857266877 11.316096667986 11.854290848901 9.9062099956474 10.415295542515 9.5384139501772 12.766876905575 12.236022881188 12.221263155081 11.511821540974 12.015740557941 10.65027591497 13.053488089762 10.496802664903 10.898272425829 8.7475760688892 7.7810285847712 10.392088383316 10.399751309913 8.7714396710059 10.582625966774 9.7862877896007 11.659527057059 10.142063186771 10.649004511318 9.71989222115 14.868932047642 10.196030539047 11.745416045535 9.3171545214973 10.550890745142 7.6880028507342 12.2931847185 8.7443628436879 9.1686096382916 9.9947346029021 11.701681889955 9.0232819898864 9.6347307690471 12.074934239297 11.583709552197 10.48333432703 12.153758473654 11.922901177036 11.36133222054 8.0108770090786 10.777028977803 9.4651803229225 11.186382579794 10.273266882418 8.388674441381 11.284714531564 9.1724295675177 11.87630094645 11.644942769015 14.84428683013 12.712996950192 10.90568793982 7.3481562147641 9.9224897594924 8.5782822192585 11.371420804453 11.756656512076 10.479636958085 11.487602516701 10.652587044248 11.341703066285 11.654573017746 10.777188021856 10.117230777772 9.7493697039209 12.838667707308 10.796862551952 10.862087288958 12.875567869641 11.86861214607 11.283036741942 5.9854734207806 9.4866432534681 12.58172472309 9.9635133304224 12.420711680313 11.783384548428 6.403313087715 9.0012087534999 10.869971586511 9.9017815966986 12.302386603196 11.984879220705 9.5692348090597 10.534856210166 13.349013692027 11.666436003238 11.594047260892 7.079460756565 7.0079565484225 12.233378148273 11.09936376578 12.087146031739 9.81804615626 7.5062293397812 8.6281636714078 6.0066106438079 10.169798785243 7.0545754357614 10.791604031634 10.956530243004 6.9606756054244 11.198030237048 11.681713752638 9.8202031036969 11.269624164994 9.7919259235151 11.439626627139 11.170675049791 11.107333129318 8.134053381044 11.001271641403 10.319268459836 11.536425601236 11.807896521192 10.003944250984 10.734942992557 9.8127630271953 10.09042233255 10.585006008737 10.73615745599 7.0993405645587 10.633717851427 6.4149853615323 10.129922437704 10.487248277019 12.270615768987 11.084812764747 13.052541471518 10.0492405569 11.517871001898 11.117948374641 10.025291655422 8.846951798906 11.956972893341 10.578008066052 5.0349028377833 11.549730426013 11.047111256671 9.9844690892802 11.07399484542 9.9687476977276 7.0080457306884 11.089387278894 8.9761965006692 9.3124048465939 8.658208069095 11.736314980406 10.78494523266 10.029946496109 10.876185010004 10.938050688253 10.162698032887 9.1804469347149 9.8303540897266 9.1454731328098 10.176170062309 7.4770307960099 10.248055876542 10.771489177591 9.6747501194871 11.816035424956 10.228351983127 11.741422187315 7.6072007814213 10.138608897265 10.000392693209 11.796836670871 10.547495899505 9.9702272871641 12.115719483864 8.9397638517665 12.016642398433 9.6667173217891 9.9573817695006 9.4856902198486 10.105364730186 10.597578050861 10.36674832117 11.230781944703 11.395966756316 11.327182369014 11.253158397011 10.821568230218 11.593346930807 8.3636778732063 11.565069761577 12.715568238971 11.897907649922 7.4027549325082 12.580013692723 10.369818492238 11.875941558234 12.356453820437 10.903320691245 9.3088571151134 8.5140514350643 8.6186326012279 12.721937998926 10.168726219149 10.548790973103 10.41242432357 11.163379744302 11.082043713534 11.744667769432 8.7254956921636 12.6162930684 11.885893264254 10.207816791741 9.7381165298489 8.5747640588417 10.578914430664 11.314370753638 10.084207425086 11.07983277613 9.9993713843639 11.21193336897 10.050913386738 10.548137640599 10.111548476401 8.6406228281907 11.129478338233 8.1265026128766 9.6862587367242 11.038777417392 9.1804090759964 10.378650698021 10.695005304208 10.031707206258 9.3852840273573 9.2584510930523 12.955455382833 7.5464958436408 7.0173541215588 5.0745356139751 9.2578106832628 8.0965796404214 9.8557945038546 10.162772043648 9.150165635152 10.084693518993 10.039990858489 11.712056261652 8.7791389847658 11.374400987791 6.5910017413436 8.3146364090868 12.511911655285 11.876090399943 11.074791207975 9.8192294125115 10.86850464405 10.750088764209 10.479180711678 9.7758124645562 10.441934729347 7.0384824041829 9.9385739916915 6.8722154146608 10.739546062912 6.5317821405494 6.0543650973698 8.2448879500477 8.9335956880167 10.588712870849 10.492768943758 6.3201204714879 7.6081542132776 9.0442003454727 11.324051205764 7.6684545531605 6.5734244282144 6.3658260739215 7.1981325347282 11.229033932015 11.96495396125 10.160795902284 8.4458889464657 7.3856263777218 8.8773997168527 10.592811235937 8.3279044417997 11.793500688921 10.224777330918 7.6596836889749 5.8000243605639 9.6124944314518 9.7725445837234 12.018460287485 11.729845237644 10.824568347014 9.8224480730379 11.295340751362 7.3236454060285 12.749685773773 8.9698573574995 8.7942238366171 7.5831099530952 10.401302347614 8.8588715886907 11.835758674145 9.0830681029572 8.8885067531851 11.596421393998 9.7153379820494 11.737460139991 11.878146808047 10.182803099812 10.028689157833 6.9397945007403 11.785838002639 7.5410871027352 10.302599209651 10.472970489567 10.732107597044 11.460933632158 9.4936535875173 10.470097277595 8.4980721451625 9.9546821848632 10.068568522626 8.2325317747683 7.703719425202 6.561289650967 8.7769879950007 6.3987999031279 11.150381416965 9.601630182431 8.1266980682388 8.1479722321935 10.517279451164 7.7356537818507 7.2127163523013 8.6690279407877 7.1440016203533 7.9728847455861 11.557003016088 9.9570997094336 10.086256663852 10.343759693705 10.774793319606 5.6597650402345 8.9469225946269 5.3283320042655 9.0525480082932 5.7716369741161 8.3635002962781 11.255751562329 9.8759036415779 6.5371809777908 10.155777504065 4.7617843047507 11.105244802562 7.9579523764343 8.8655116602656 11.763625019325 11.362084042689 10.619787645152 9.1753066768488 5.5911902213088 4.1991868401279 8.5051701645666 10.621766571139 8.2219299059562 9.7278207227473 7.5894523366554 10.112054539391 8.552130795127 10.037833007451 9.2524289857108 5.4669035604965 6.0922079658655 9.4267552204015 6.5082576058499 5.3603681690091 6.8611767272126 10.055199520769 7.026845034073 5.5232467907403 4.6991787660287 10.664573347098 8.5157223902566 9.7466567105296 8.630596266608 6.0423761605715 8.289474764313 6.2434841928647 6.5056025754404 11.0071818948 8.6181351842127 8.3995809762716 8.8352336751582 11.071269099245 7.3412274576386 9.9931680486361 5.2127905720727 8.4811954181987 12.688211285776 11.435780359099 8.8509487041941 6.6574673112502 4.9924670269803 3.7320913128757 7.6936982660456 10.737451864955 7.6651326467657 7.1069382559992 6.0018287292338 7.3335944041841 8.2879709030843 10.647775881531 5.605037560721 9.6516112735641 10.629166669314 4.2343264673188 8.8243971566547 12.147644566983 10.876212636717 5.8794003643685 8.1887616098594 9.7796087192158 7.0410665521622 6.2866464437271 5.3743556550864 10.373003164143 10.149134257337 5.5554741676285 8.2724763422141 9.4907796566021 6.7120823766986 5.8843276955628 5.1009553496843 10.280554101827 8.9141081065093 9.3484561845906 7.740080653047 9.8937220705463 8.3295240375766 9.7124789413994 7.5015190490468 9.5563587446686 10.168323433161 9.4223251608746 5.0464043955624 3.2462235918067 10.927558679337 5.8826333860186 11.74962232138 9.2409611211885 5.7668205870848 9.4961660896482 3.7472045888176 7.4865260868554 3.232003841599 4.3256977925645 9.4421462994134 5.7793331056424 10.864120201152 5.5108342721076 10.591951392831 9.4245475988769 6.5566630813971 9.9630162542363 5.0546766299435 6.0916045091645 7.9456394812518 6.7539943940248 8.1722982429838 5.8282024084381 7.4022334240064 9.4940894102739 5.2845590604269 4.5086354721189 8.8396578005532 7.6682421575961 11.694339628221 8.1093109969853 11.385895852857 7.0601040968089 9.6883877797765 9.7242651053073 6.3570527236446 4.02582614788 8.1619146936296 7.1520931208087 7.2424618549037 7.3669155418977 11.720740525096 10.063958758708 5.176244337212 9.5166063007272 10.378454634817 8.1581872658215 8.4539524214375 7.4853968719903 8.1759324375134 7.2048360163581 4.0539379960344 9.4211908142949 4.102118697323 8.1167604554801 9.5535219607286 10.288814433725 6.1836947870897 8.3524416412037 9.804816706298 8.5238187568883 7.8373054517011 6.4262932287345 4.9958105234942 4.0037145532599 5.1839569889831 7.6617494629122 9.4573358265199 7.2442797501208 6.0997535554241 7.2623871251382 5.6568332502865 11.57175236052 5.4182341334846 11.126785797675 10.141314444404 3.5475334097696 8.5417832860067 9.2586602415777 9.5391514503273 8.3807349394585 7.0667566639273 5.9845187772543 5.9055114449698 5.75952966298 7.6224100178182 9.5552681715354 3.7855210121617 4.9341143073392 4.3492509088986 5.4821446740723 4.8111136366852 8.80961270194 6.5158734596205 8.5670355803066 4.5673472978837 4.8954573645583 5.7393844525484 8.6811851228388 4.2473890792105 4.0074206400571 6.77914318813 5.6617233888455 3.4280599575315 5.7134204786142 11.034564255431 9.6254914225123 6.993286776162 4.545363612435 5.2385535331155 4.480314768327 8.5208986637633 7.4019559456884 7.8686658373106 6.8352328338074 10.275431413308 9.5750149932558 5.3564375971326 9.5919526808207 5.847560502933 9.2243930197258 5.0888504769864 8.2943124200295 10.004733932846 6.6203859618854 8.5548146157241 7.7955244185199 8.6826914431209 9.3252890371729 9.7035469398823 7.3327831242524 8.8706814953637 4.0677308110006 5.5357904164732 9.6171876917853 3.9450823452097 10.434673035095 6.9081945678238 6.421551253329 6.323432727194 7.454988859036 5.5823322977605 4.7710741886936 4.8858747495749 4.8599363106597 4.9720500176043 9.6328208309288 12.406316569148 10.993632058008 10.218264002004 3.9799659283153 3.041230795464 5.5381037863392 6.0756150975616 6.4791541885201 5.4594170623959 6.0364162310695 5.1046424788933 6.4202827603155 6.7736946340084 6.5384148535025 6.3451065332531 6.5886355162583 6.2824607984752 5.9884220638292 4.3318233841064 8.4120364423871 8.084905128749 4.4641394791433 3.2671442295538 3.2153267565951 3.4224915201677 3.8835821092994 6.8222754069946 6.2288941107826 8.1190229353446 6.3056182262311 12.072044765064 11.635175960466 3.8996645121604 4.2707578990572 9.2367464332541 5.6120703405884 3.7336195827281 3.742420057874 5.1929027446808 7.3048253910238 11.442538437611 7.1627725013844 7.0924332713161 5.6865786728598 5.4348956293594 11.385625578969 4.5230655951936 8.3881416818121 12.449223842003 5.7805014111223 4.0263844702044 9.4951105549729 9.0859272577996 5.182886780684 4.4812246425697 4.4013980398529 6.6269867787891 3.3827067475051 5.176431151569 3.490987229562 3.3263138872448 3.9950887035944 10.510151910142 4.8187898858425 5.436960592409 4.7206113784619 5.1021647011029 4.4682700414021 5.9425253783032 10.998276537541 3.438288661297 6.0355681396895 3.0149644188967 3.6185763182799 4.9949756639446 4.3208776203783 3.7604245814681 3.532853360428 3.9652061269177 4.0462085297305 5.2566184194843 3.5455527991643 10.039797304777 4.9754964537295 3.502980015776 3.972894788953 4.794637765668 4.6561620745491 7.5651593084121 7.0882459698839 9.8081284986841 8.6349502483249 6.7615591234379 7.8853308086182 5.6176645213824 6.646210537313 8.8601092801736 7.9179793745331 4.9373234337755 6.0538632169602 5.673073874739 9.0544075267946 7.2269127358427 3.3597337696135 4.4025639613948 4.8535932811266 4.1323326057632 4.2686272047718 3.8584028014361 3.9813347700055 3.6314369621363 4.447051630552 3.6379525094289 4.4287941466888 4.3972544614842 11.333763578487 4.3534593143609 5.2728546998956 5.0128517603257 11.694502091022 8.0291916169172 3.3277907274044 3.336732846726 3.4201284142318 4.2842848122807 4.825546268726 12.941848852727 3.6263141188952 4.1087735657382 4.2548990129034 3.0891999229932 3.5262400725583 4.9406948623998 4.0075794652087 3.9521419174259 3.9428083444588 3.8031518559563 4.0450070931267 3.5210867586937 5.005537350381 3.3782914290254 3.6349770229127 4.2021139459233 3.2674914515463 3.3050565204756 3.6243745723811 3.2667183927798 3.4925745871101 3.3595085443149 3.4278841407497 3.4373009260382 4.3273004715173 3.9331416058416 5.2202482486869 5.6073952916894 3.2467592780494 3.1158000452186 3.0972696707591 3.4641508488865 3.0528494316495 3.161849014841 3.1706954882497 3.1052859510898 3.4516852198151 3.7855480650091 3.357195240653 3.3674714073762 3.253659989535 3.4427330624488 3.7821516069097 3.7565023943524 3.2344738034327 3.2407127920962 3.3187655287965 3.1130534684426 3.2144360120601 3.2747595825047 3.3049873518939 3.423336908251 3.3823941273221 2.9928661645334 3.4616890081553 3.0768972991885 2.9495571790325 3.1883246285 3.5894892907922 3.1736110182154 3.0286845419697 3.1937849075152 3.2144383447398 3.2722820508495 3.282354040683 3.376045301999 3.29146823932 3.1093922373184 3.461417054983 2.9686708802841 3.4852712035756 3.2628671523069 3.0874183220104 3.2099842678302 4.1352775031778 3.3186677986325 3.0866445665007 3.2069412254106 3.4432188070665 3.2219270161622 4.2148496719228 3.0904195113683 3.167154912913 3.1043981799296 3.1044759154264 3.2177599222607 3.282836950994 3.6096580607716 3.6495546481823 3.0819966461846 3.3121200220219 3.3322096509788 3.1393144216992 3.2706452806154 3.3229180654078 4.2415278593921 3.3240938979785 3.3007581043167 3.0806679176008 3.7808541495694 3.2754970096449 3.779234500675 3.3676470241962 3.5719396975928 3.0512303761067 3.3620946905127 3.6745557524136 3.1350169499219 3.4884027061018 3.8303235153017 3.4500955458135 3.3823469098997 3.3751777047123 3.7715765615479 3.5675524758989 4.066609405253 3.4805520150585 3.35847529073 3.3045130779573 3.1447575275608 3.4248515976452 3.2749177941956 4.170788995444 4.0902920964832 3.4899723684231 3.8183482277685 3.6937325649029 3.7522742138433 4.501735517322 3.9229763693872 3.6127307545929 3.0088627539324 3.5860700387205 3.728357841952 3.2520001351337 3.4076195475827 3.3045091929143 3.9364707725033 3.4867197969484 3.7172206068216 3.3302890468476 3.7772617495335 3.6322543997792 4.1306847452981 4.0509738614973 4.4851759499688 3.9224002096992 3.9137917456717 3.7419159089015 3.9551195818178 4.0198891722622 3.8035627645573 4.1918796796169 4.3005140836171 3.975872252777 3.5884483992302 4.5333408971318 3.7589126746273 3.2806109241052 3.6979870621787 3.9541879151092 4.466230436567 4.0705659711769 4.2679520822882 4.6371759139452 4.4323369562009 4.605674296471 4.6217093255436 4.3089367093662 4.7269736076835 4.5947198996416 
SCALARS 20.00_0.67 double 1
LOOKUP_TABLE default