# vtk DataFile Version 3.0
d-2__ created by libgimli-v1.0.12
ASCII
DATASET UNSTRUCTURED_GRID
POINTS 1303 double
5.625	0	0
5.511811217919	-0.146388704457	0
5.676386535709	-0.13519637448	0
0.25	0	0
0.175228502521	-0.179050409113	0
0.326009290428	-0.144330725415	0
0.375	0	0
0.990207725992	-0.114957291708	0
0.841075314552	-0.137634199948	0
0.926498288371	-0.349340723189	0
-0.001071200562	-0.386156929004	0
-0.003317641763	-0.130454088023	0
-0.192720422374	-0.216308252768	0
1.25	0	0
1.175215748534	-0.200562384647	0
1.341115762259	-0.128605193971	0
1.375	0	0
2.25	0	0
2.168494514827	-0.19848886597	0
2.338304607341	-0.128945294536	0
2.375	0	0
1.911268305082	-0.334701951691	0
1.986191885908	-0.110806668109	0
1.838390258011	-0.128853462534	0
1.75	0	0
1.670105949089	-0.197137117999	0
2.986685504441	-0.10889534818	0
2.838723720416	-0.127406828384	0
2.912854264006	-0.329775839393	0
0.75	0	0
0.664572693147	-0.222613872306	0
3.25	0	0
3.168798596028	-0.193682232199	0
3.337828500197	-0.125181208794	0
2.875	0	0
2.75	0	0
4.25	0	0
4.161099470995	-0.193412132741	0
4.332718836325	-0.127723897736	0
3.83511440706	-0.12403687807	0
3.875	0	0
3.75	0	0
3.901908238995	-0.321557035295	0
3.983050435256	-0.106770030737	0
3.665527023987	-0.190866765849	0
5.25	0	0
5.164693411436	-0.21656556845	0
5.338419985376	-0.147288917438	0
4.834321952324	-0.135810575609	0
4.875	0	0
4.75	0	0
6.25	0	0
6.178399669611	-0.137425451145	0
6.356205370496	-0.193853696818	0
5.817814980918	-0.161175429964	0
5.875	0	0
5.75	0	0
6.611939839541	-0.314381537706	0
6.522886280605	-0.104721203126	0
6.75	0	0
6.669178832877	-0.119404962711	0
6.836073690852	-0.177498311423	0
5.39059629209	-0.37339102075	0
4.660917359886	-0.204007052252	0
4.902096977384	-0.356327271651	0
14.897042426984	-0.319128540459	0
14.98121339776	-0.105010975498	0
14.832720105416	-0.123004000492	0
2.669265824618	-0.196872625129	0
7.656019919505	-0.144451020927	0
7.75	0	0
7.625	0	0
6.625	0	0
8.75	0	0
8.672937461928	-0.164309120831	0
8.834289374889	-0.109279841483	0
8.206809119751	-0.294811800109	0
8.187056112549	-0.110869448227	0
8.024316200302	-0.129362764133	0
7.157390904024	-0.111206354394	0
7.25	0	0
7.125	0	0
8.25	0	0
8.125	0	0
9.75	0	0
9.651145885459	-0.185384966231	0
9.827054067621	-0.122428024454	0
9.381816956327	-0.305807769915	0
9.476753337472	-0.101567493772	0
9.327490061855	-0.116748040282	0
10.75	0	0
10.655660803951	-0.196164841752	0
10.830485405183	-0.127989131147	0
10.386748323888	-0.329675548046	0
10.478464938155	-0.108955040137	0
10.328560245085	-0.126395562242	0
9.25	0	0
9.375	0	0
10.25	0	0
10.15270392044	-0.192469144253	0
8.328856990144	-0.128933011689	0
8.375	0	0
9.153857570119	-0.175508527296	0
11.75	0	0
11.660624577581	-0.201812344528	0
11.833823570609	-0.131890823957	0
11.395399221028	-0.337817920558	0
11.481219500696	-0.111845889235	0
11.331881500183	-0.129806070652	0
12.75	0	0
12.669299873111	-0.199190799603	0
12.839534650452	-0.128328673855	0
12.40897914742	-0.340185307353	0
12.485654611126	-0.112072117633	0
12.336727606385	-0.131188239877	0
11.875	0	0
12.25	0	0
12.164627546098	-0.202605127067	0
13.75	0	0
13.669268468008	-0.186168180444	0
13.837322273199	-0.120178339978	0
13.416957459915	-0.319650485848	0
13.487510959619	-0.105281058988	0
13.34010202956	-0.123833443479	0
14.75	0	0
14.66080663422	-0.189613659871	0
14.399926333663	-0.319306441484	0
14.4823067449	-0.105599641009	0
14.334114343934	-0.12250571155	0
14.875	0	0
15.25	0	0
15.158227025815	-0.185762723401	0
15.330441202311	-0.11956675178	0
13.875	0	0
14.25	0	0
14.163960939829	-0.186365139356	0
12.875	0	0
13.25	0	0
13.171786689458	-0.193064330135	0
10.875	0	0
11.25	0	0
11.158129238503	-0.198418008741	0
7.31587636932	-0.171642077952	0
15.3902841013	-0.308450173235	0
15.478958243586	-0.102394874489	0
-0.125	0	0
0.125	0	0
0	0	0
-1	0	0
-0.706889652808	-0.331752981492	0
-0.5	0	0
1.125	0	0
1	0	0
1.625	0	0
2.125	0	0
2	0	0
1.5	0	0
1.488007132967	-0.109900770852	0
0.5	0	0
0.474245721096	-0.130043839003	0
0.625	0	0
3.125	0	0
3	0	0
3.625	0	0
4.125	0	0
4	0	0
3.5	0	0
3.485533411273	-0.107014956798	0
5.67736414417	-0.368119689468	0
5.125	0	0
5	0	0
4.98353533542	-0.118243061674	0
6.125	0	0
6	0	0
6.009467825362	-0.139471566496	0
6.5	0	0
4.625	0	0
5.5	0	0
4.5	0	0
4.481603306259	-0.111052305129	0
2.5	0	0
2.486482293556	-0.110456056597	0
2.625	0	0
7.828740664136	-0.157959666613	0
7.5	0	0
7.497789303332	-0.098817221798	0
8.625	0	0
8.5	0	0
8.493725508365	-0.094448160765	0
8	0	0
10.625	0	0
9.625	0	0
9.5	0	0
9.125	0	0
10.5	0	0
10	0	0
9.976983002093	-0.106037154081	0
10.125	0	0
9	0	0
8.980258705317	-0.095443922293	0
12.625	0	0
11.625	0	0
11.5	0	0
13.625	0	0
12.5	0	0
12	0	0
11.983083448534	-0.113269018621	0
12.125	0	0
15.125	0	0
13.5	0	0
13.125	0	0
14.625	0	0
14.5	0	0
15	0	0
11.125	0	0
14	0	0
13.984735949845	-0.103165953766	0
14.125	0	0
13	0	0
12.987740386932	-0.109238757727	0
11	0	0
10.980033547654	-0.110118532971	0
7	0	0
7.012790729926	-0.096165366155	0
15.625	0	0
15.653391866104	-0.184257106926	0
15.75	0	0
16.25	0	0
16.151956269841	-0.190746813766	0
16.328162175541	-0.125534698515	0
15.827345422636	-0.12109528269	0
15.881623705918	-0.315197408181	0
15.9768075603	-0.104841845177	0
17.25	0	0
17.155473725888	-0.187015736188	0
17.328334720487	-0.12053442359	0
17.375	0	0
16.97978281674	-0.105790715925	0
16.830585534618	-0.124270763258	0
16.892220832712	-0.321708894118	0
16.75	0	0
16.655725821363	-0.19281499559	0
18.25	0	0
18.144056513649	-0.199584109463	0
18.322695877645	-0.133173012767	0
18.375	0	0
19.25	0	0
19.156955168382	-0.212194778097	0
19.332395147696	-0.137501625504	0
19.375	0	0
18.978107771567	-0.118463258117	0
18.827251646435	-0.137822523984	0
18.884674261801	-0.359498065923	0
18.75	0	0
18.648603260315	-0.210400354993	0
17.973004229039	-0.108213471414	0
17.823362138939	-0.124125311933	0
17.87020700187	-0.324156104502	0
17.75	0	0
17.64837652944	-0.187413016584	0
20.25	0	0
20.167288289523	-0.206556633625	0
20.33799343326	-0.133667464393	0
20.375	0	0
21.25	0	0
21.172020853715	-0.201327641466	0
21.340729826518	-0.130206344264	0
20.875	0	0
20.75	0	0
20.839555732676	-0.132066213667	0
20.987710400762	-0.112937783384	0
20.915843633601	-0.342386775443	0
20.669904108595	-0.203936882105	0
22.25	0	0
22.168893714495	-0.194483818359	0
22.337089427477	-0.126591453251	0
21.875	0	0
21.75	0	0
21.840184239699	-0.127666317168	0
23.25	0	0
23.162361450448	-0.215073727418	0
23.335945395372	-0.148199257458	0
22.875	0	0
22.75	0	0
22.83504078106	-0.133126573368	0
27.412614995451	-0.337768305098	0
27.406417478875	-0.760610856776	0
27.663031754041	-0.476449210851	0
23.674319496044	-0.139602731619	0
23.75	0	0
23.625	0	0
22.902876337082	-0.348446434986	0
22.664415839639	-0.19979598046	0
21.987454968006	-0.109075483352	0
21.916658702332	-0.330379709848	0
21.67241042914	-0.19774510361	0
19.984830323221	-0.115851903278	0
19.835879034474	-0.135573032779	0
19.906686139011	-0.351521653308	0
19.75	0	0
19.663378765328	-0.209646647928	0
24.75	0	0
24.672305039303	-0.121865624882	0
24.84054616259	-0.178479133746	0
24.25	0	0
24.125	0	0
24.179559510218	-0.145425217914	0
25.656694723316	-0.141492417978	0
25.75	0	0
25.625	0	0
25.25	0	0
25.125	0	0
25.159224348757	-0.109007087058	0
22.647257188685	-0.476376729768	0
22.872248033711	-0.780455516934	0
25.317652966423	-0.167196322239	0
31.908525182248	-0.237434634112	0
32.248547795208	-0.367887731521	0
32.025	0	0
26.398062594932	-0.327144710524	0
26.335089901602	-0.124890632532	0
26.169730315141	-0.188549564961	0
26.75	0	0
26.662500836065	-0.197477656933	0
26.835401004001	-0.129534360312	0
26.375	0	0
26.25	0	0
27.486869476066	-0.111474770432	0
27.338367230812	-0.130187170762	0
23.816158307302	-0.168335740772	0
23.875	0	0
24.625	0	0
27.75	0	0
27.67023663024	-0.198727549038	0
27.839431305592	-0.128541986375	0
27.375	0	0
27.25	0	0
28.75	0	0
28.666013303123	-0.192953151514	0
28.835335299513	-0.125393524551	0
28.875	0	0
28.41074998604	-0.32692743598	0
28.485854239984	-0.108071323096	0
28.338261561589	-0.126341817439	0
28.25	0	0
28.169650699531	-0.195402875109	0
29.75	0	0
29.656991685033	-0.201213204108	0
29.830700495316	-0.13323291855	0
29.875	0	0
30.75	0	0
30.665605116896	-0.213760177502	0
30.837855425721	-0.139272404211	0
30.875	0	0
30.987248292653	-0.119871959545	0
30.911614165903	-0.362389547989	0
31.25	0	0
31.174363802618	-0.217041176186	0
31.346460135447	-0.143418487957	0
30.400599561582	-0.360265197586	0
30.483280501431	-0.118794220148	0
30.3336351656	-0.137924489201	0
30.25	0	0
30.159375273254	-0.21004086356	0
29.392934647931	-0.331414044449	0
29.48031118177	-0.110263057575	0
29.331777210358	-0.127344913482	0
29.25	0	0
29.160548153072	-0.194064979946	0
27.167334579456	-0.200440763045	0
24.359650796728	-0.20304719459	0
-0.25	0	0
-0.404335947278	-0.221464959739	0
16.125	0	0
16	0	0
17.125	0	0
17	0	0
16.5	0	0
16.478267427857	-0.108008273171	0
16.625	0	0
18.125	0	0
18	0	0
19.125	0	0
19	0	0
18.5	0	0
18.473681471998	-0.115768873419	0
18.625	0	0
17.5	0	0
17.47687846862	-0.103462148239	0
17.625	0	0
20.125	0	0
20	0	0
21.125	0	0
21	0	0
20.5	0	0
20.486446843971	-0.114298370976	0
20.625	0	0
22.125	0	0
22	0	0
23.125	0	0
23	0	0
22.983281399654	-0.116385827149	0
23.5	0	0
23.509214189908	-0.149359691049	0
22.625	0	0
22.5	0	0
22.48467632496	-0.1093719097	0
21.5	0	0
21.488472844532	-0.111208801785	0
21.625	0	0
19.5	0	0
19.482219828947	-0.117572233456	0
19.625	0	0
24.5	0	0
24.525433875838	-0.108080714825	0
25.824234283709	-0.149177038136	0
25.5	0	0
25.498573523516	-0.096586408813	0
25	0	0
25.014769107289	-0.095147895568	0
21.919931345447	-0.741308582321	0
22.160361550711	-0.463896476278	0
26.625	0	0
26.5	0	0
26.482631880244	-0.108512805864	0
27.625	0	0
27.5	0	0
27	0	0
26.984612185119	-0.111680714924	0
27.125	0	0
26.125	0	0
26	0	0
25.990349817319	-0.10847866492	0
28.125	0	0
28.625	0	0
28.5	0	0
30.625	0	0
29.625	0	0
29.5	0	0
29	0	0
28.983089608831	-0.107750428826	0
29.125	0	0
30.125	0	0
30.5	0	0
31.63125	0	0
31.5	0	0
31.494696987447	-0.123712578064	0
23.671261205816	-0.380102168636	0
31	0	0
31.125	0	0
30	0	0
29.980228243528	-0.115525062547	0
28	0	0
[...]
CELL_DATA 2263
SCALARS 1600.00_0.52 double 1
LOOKUP_TABLE default
8.7274418069129 6.9757622720415 7.0801583543445 7.4606403418937 6.912722416661 7.0930719367373 7.1268700247592 8.2461757508313 8.2441405514577 8.4343805909416 8.7281439888049 8.1116022225646 7.5018928612685 7.6512985680512 8.4430730312327 8.5144195576601 8.1265134884109 7.9887066066438 8.094875023008 8.0654180735568 8.3551547072478 8.0480937361377 8.7915492997114 7.8158222806159 7.7162579333005 8.024189171969 8.7857620803353 7.9684632372358 8.2734844074503 9.2355627352498 8.4007050751692 8.7679612790592 7.670708990446 8.8703310764873 8.2325270174445 8.9771078086598 8.2088757228198 8.6780480024803 8.2658146915323 9.4251543449352 9.2072756314219 7.9657695468057 9.5427774987079 8.3762768061641 7.9979554879516 8.580111119827 8.5970172255237 8.7543689963358 8.3029098361427 8.5654268079381 8.2114265780689 8.3712255073158 8.7933465082256 9.375982958428 8.8745459842059 9.4780092880961 8.9994747654851 8.3085811527534 9.0571690735065 8.8432745976126 8.8056145091871 9.5645070626088 8.4604621625917 8.9871782751306 9.215649425623 7.0988465733005 6.9281311750806 6.4786174270994 7.1112583633052 7.4730335363693 8.794359424577 8.7113334509251 8.3509430873309 8.3881897084259 7.5635247464814 6.8578999068712 7.7414812945009 8.1473044148522 8.1811977989031 8.4865932830775 8.1496165183898 8.5730864692607 8.418634201238 8.3069071292264 8.7415966078965 8.4147093526803 7.8312301999494 8.3122323460237 8.7212469784571 8.391214311385 8.4863726600853 8.0924468374058 8.5411751140219 7.5282744778593 8.7110083769706 8.9407747370564 8.2644588901694 8.8007686856036 8.3959782695794 8.8491224376664 9.3853756762943 8.6839357406199 8.0706641586642 9.4470184886879 9.2824247400658 9.5863221207677 8.5704216508451 8.7785348207974 8.736441614263 8.8540646335717 8.493823473113 8.6736844170393 8.5034271894992 8.256181215606 9.0001046779482 8.8480351165108 8.8453581508706 9.2504107848468 9.255289898923 8.5031154791073 8.9775949965981 9.1545106372202 9.0014757957967 9.355315638615 9.020690192602 8.7048652959483 8.7202000579217 8.5016622926693 9.9170342418166 9.3671792556551 9.4255184791476 7.98257349848 8.0071402676898 9.1253163036428 9.4697758294617 8.2642291573685 8.2440994383184 8.7407136026876 8.8265159410269 8.2976611474155 8.2742135572802 8.5588073078353 8.6036389456835 9.6102827038311 9.7861337265163 8.6795605628999 9.6769849205049 9.3932650076728 9.5882197177917 9.0541475973091 9.088561626882 8.8623736557313 8.2484201178146 6.5554460620022 8.1179148426046 8.1406386726545 8.27227959816 8.9922359058936 9.0909727244571 8.4127188289443 8.0953844988813 8.8111986453607 8.0546335615701 8.7467540959404 8.4990868166915 6.7049921916277 8.4099053044734 6.2989853111718 8.2915830539423 8.1064606518075 8.6732452238457 7.9964820709638 8.089059209844 8.8863530415517 8.682326505987 8.1896995054762 8.232624251549 8.3848947153456 8.4595641066631 8.1589544839346 8.1808224411309 8.1607575213004 8.1842937444618 7.6116547160223 7.6412913034103 7.351519978579 6.4773285365767 7.0840028566358 6.8849041323556 8.1995473216127 8.2159607503312 8.1548310202498 8.0533773488185 6.8799001074895 9.6132012717449 9.4787386232673 8.6456408349108 9.3463610128535 9.786199009202 9.4178149535057 8.6731298954432 8.7753637970163 8.7428516076364 8.3972583513759 8.3972620152315 8.5773271441765 7.9924299096999 8.633792092259 9.1750618157827 8.7640688528135 9.3491853906119 9.8315788885408 9.5830015979472 9.2280894126913 9.4250453495745 8.0650010654884 8.982888929278 8.479876350748 8.4072691631502 8.8535004110006 9.0565433997599 9.3314627843707 9.6257393236889 8.5242238196625 8.3045223692197 8.1089938448994 8.8813697975203 8.6239740804655 8.7780554479783 8.75148508844 7.0996296931932 8.2338903005642 8.4849308293764 8.1919096398619 8.245344817723 8.2082433924645 8.8234733689544 8.8596129468296 8.1766597731077 8.4184350815899 7.6648710778585 8.3927952964869 8.3170522786337 8.2323204834402 6.9671506517035 7.5363803572778 8.1902080213154 6.8752571314082 7.939929772218 7.1482282489782 8.190182992782 7.5719859815819 6.5865229247602 8.2700442974809 8.4041266491877 8.2353613329902 9.2236409149887 6.6008688490249 9.745552143252 6.8709344361899 8.0777146214733 7.4464536732316 7.2995096418278 7.7199036994452 8.5057004121858 8.3990751672237 8.6057072995391 8.7963308990197 7.5708989212232 7.6036433970895 7.9136249512587 7.9000052872937 8.4800191260833 8.6273772725273 8.1666509060682 8.3079293605196 8.1600291360439 8.4935141194785 7.3012865341097 8.0255086896373 6.4666866112038 8.3726754312091 7.9178565578368 8.6800382040607 8.3275716909886 8.4427754138008 8.4836144397945 8.3833281129081 8.7129474123255 8.8161941624627 8.9177241603077 8.3653807810851 8.7148652144159 8.7936869701119 8.8877689162411 9.3139876708267 9.4990064195845 9.3972983512836 9.6447974705743 8.3195059243298 8.3016889002726 8.8017681806319 8.5864895510915 8.6933043350543 9.0236594932365 8.3603062779094 8.5299498106149 8.6942860465585 8.5645898134473 9.2426986154264 9.4800314307739 9.0929819076287 9.3883757437332 9.079277191857 9.1837552791425 8.9106699019879 8.9181282865509 8.7249715720406 8.7236183088139 8.526623931205 9.0632532638135 6.7777213113318 9.8557383642742 9.6366896934318 9.4744338305847 9.4414411471485 8.262097243396 8.3634481746759 9.2803058103764 9.3608500423585 8.5388504525949 8.3550104168217 8.7304663123901 8.8321428917938 8.3394910521581 8.5960763088114 8.6502390619954 8.7124561267706 9.365471027599 9.9770820947987 9.0391929297242 9.0577387863858 9.6614645809938 9.6930055458326 9.3152473888946 9.0120463076767 9.0149924963753 8.7469592583087 7.8299221123062 8.266697997831 8.6157136155942 8.580312682106 9.3085160536474 9.281385913761 8.2928371701724 8.6657505903006 8.7674990822332 8.8240841490272 8.425124115051 8.7091508755238 8.6186789873851 8.5676369293748 8.3061674247592 8.1783203870793 8.8096862022083 8.5799209445961 8.1573723232021 8.3681541636509 8.3705182433869 8.4824763457424 8.1770847836765 8.4036803240126 8.2831384648664 8.0101442655984 7.6140954608588 7.4970845827176 6.8727061070932 6.5818988754662 7.2456416262478 7.2349646784595 8.1982807999063 8.4828029698535 8.1449336488357 8.3063950966309 7.5363281384 8.5860826669842 6.6369233776669 7.0344532717022 6.8289407048561 7.1324099614323 6.8893498662096 6.8377776225942 7.5302192062278 7.3797071470559 8.7843525346081 7.646995477973 7.3252481625987 7.5106587287233 7.3259726930216 7.2478980419948 7.1804607189661 8.5992424285896 7.2662822479539 8.1383405570801 7.8617988251148 7.7165728712561 8.2397896530927 8.0995891559703 7.8708136397097 6.6081815349934 7.9739185800661 8.7809046718549 8.1268566475315 4.612036164475 7.9863873994811 8.243182181311 8.2314382237922 8.1128598477576 8.6365766301037 8.9464109573792 8.5994895513012 8.6598900887609 8.1313154438555 8.6087258767244 8.0300062083721 8.2853010231318 9.6560012240232 7.9643335899159 8.478885939288 8.661415349325 8.2468752650792 8.7060949176557 8.4701675678383 7.8602181632101 8.2564281318985 8.1839400827443 8.5929889422458 8.4093224381659 8.8320736799069 8.2992460521052 9.093717413405 9.0405538622043 8.8524004206129 9.7555277411272 8.6956034613356 8.4762256952719 8.3724191117588 8.774609020718 9.002316101695 9.2144012353008 7.7572018973178 8.1776406927467 8.603506792431 9.4265245457963 9.4141471476576 8.9205358402057 9.6210088936564 7.8097996639528 9.1869098672795 9.0796454715011 8.6225288441843 7.6173802215859 8.3310374444256 7.9784472743069 8.4360825237345 8.1743467656516 8.6386895399519 8.2923748751295 8.1371239563941 8.6807071372411 8.2224309571316 9.0409853902742 8.6733486568118 9.4484933612239 8.0241579430875 8.8752270208414 8.2462520254569 8.3411643649143 8.3271057508314 8.3813939594714 8.923658369606 8.7607139476608 9.0806325575925 8.8659321325732 8.3154922959532 8.5353560510469 8.4110180417676 8.6129856506312 7.714836626259 8.1173264081673 7.5090836946409 6.7447976390124 7.9412781257146 8.2820240065172 8.2226988098149 8.5297215228747 7.2940416081976 7.570450800731 8.2556843419365 7.4383297646954 7.8869048121815 8.0926200966345 8.3181125077036 6.7237321468722 6.8774260429928 6.3928628791078 7.2234406415077 6.503985213198 8.0876954188319 7.8524302582352 8.1090805003968 8.2271961258662 8.3282521671197 7.8056329339941 8.2705231464874 7.9386666900664 6.4955779617628 6.6169870898314 6.5707841523161 5.993286814176 7.0702836484915 7.2574701170792 7.2048032643215 7.3483978061064 7.964354811018 8.2687228409714 8.2776183345512 8.7474868309341 7.3487085680751 7.5758719283471 7.5600884332957 7.7313850679662 8.0905515597677 8.5720231298811 7.8188618298833 8.1540384154323 6.4697265335356 8.2430733489391 7.5466263019663 8.0800551900332 5.837246485168 7.8437091824969 7.865863376234 8.7081402434352 7.2801127485435 8.3765408352033 8.0084284728519 8.3998897872626 8.8679296810209 8.7477968425967 8.4022400342122 8.9618550866009 8.0656625604702 8.5353197629794 8.5124811173069 8.7056807772425 9.0872130323798 9.5525266048628 9.0427263450771 9.5988918065794 8.1247755078046 8.1086878583264 8.3458276025431 8.5612928905185 8.5750731156201 8.9143297623322 8.107815162633 8.3578689113896 8.3643825969759 8.3875641134404 9.0861548202899 9.4738055277061 9.0130251476436 9.1710311686509 8.7248211611179 9.0796907240811 8.6736181928731 8.8767215817157 8.4716304157532 8.5871435077312 7.467601586644 9.0826809662403 9.4212914732514 9.6558413178903 8.9732643206365 9.3821901170636 8.1397754381036 8.176994376535 9.0609800331544 9.5400366919571 8.0920269719562 8.2726230807605 8.3927334232811 8.8257986629516 8.1010011495495 8.4222840934665 8.4751798335037 8.6595411416577 9.1581462457917 9.8318581248708 8.653629041048 8.8352375187664 9.2324014414696 9.6976538141115 8.6704784421283 9.0066140661776 7.5984517390247 8.7687445902118 6.4786569296636 8.1427957461238 7.697467562621 8.3529656460858 8.8168822751381 9.1365006892269 8.128958858292 8.3399698500154 6.1312792448817 8.8337731561789 8.5296546578482 8.5954942614961 7.4874351319575 8.3767337464672 8.0841841486777 8.1034295198247 6.9859588828884 8.5915092077608 7.9391329921714 8.3032240794436 8.1229460414812 8.4547683935976 8.0109038413926 8.3031917305633 7.8591010299399 8.1245584125148 7.3077931589039 7.5910055932761 6.5495682851705 6.4714593585228 6.9257891887686 7.0224285553652 8.0481192375116 8.3831416671719 7.8469097561332 8.2345972744578 7.3354150660436 8.1623640284201 6.644408452937 7.8909209077371 6.3135763653236 8.062574766101 7.3269631346018 7.7838700705821 6.5200230121743 7.3013165237027 6.2151388205296 6.790975470974 7.2922548593824 8.0461788870568 7.2940931611303 6.9353645347585 7.1201055527559 7.1776804217619 8.2234024556724 8.1830678415106 7.1314536537428 8.6427008206204 7.3192540528104 9.0439828981937 6.649855290432 8.1294215840869 8.2542163705167 8.6802809291902 6.4905519954329 7.3026774987274 7.381377757654 8.7926907335434 8.7971719427052 8.7809605537221 7.4009424033978 8.2274703737012 7.9589423201153 8.8760420441109 8.3336777018294 8.2492055325695 8.0204641441638 8.1140043520991 7.2073478167332 6.4628058554778 7.0766619034993 8.7320891723111 7.9354630694684 8.6250091707476 6.9888139822497 7.6510587982398 7.4958701988219 9.0741392453433 7.7517687993128 8.8882486278302 8.6266476164676 8.4497694535796 7.446716415466 8.097662554428 7.2781531125827 8.1731614705677 7.5107364198221 8.23356221678 7.4932142074401 7.6689485631057 8.0756786286738 8.1078687852025 8.0092554802564 8.4494446784477 7.9962423175886 8.1080790640022 7.555365639024 8.2713248114375 6.917881953332 8.2956163371119 7.6405505883031 9.2910452066737 6.744496541672 7.5089049120433 7.4731010569078 8.0696773723055 7.1484078918592 8.9324909463094 8.1266161965278 8.5147976305032 7.2953605941095 8.3422659779037 8.3451143102013 6.3330518568785 8.0097197541072 4.4419101077891 6.8067664480823 6.2803173490182 5.8813458422199 7.8809404211261 6.4656556756612 8.1339938702289 6.8103543605864 7.6346175232848 5.9179409412981 8.1599571442345 8.5362966680507 7.909399099063 7.9327827657081 7.6242633698694 8.3568553084065 7.9907925500648 7.9716661560384 7.4429700449359 7.1953931910456 8.0626857565223 7.5732727482834 7.4506839695751 7.3307566137128 7.4665534041273 6.5096691815439 7.0634869308073 6.1147983716341 6.6820889245185 5.7060760815179 6.1767397237262 6.0850230497145 6.8227350689284 6.9197238020716 7.5283233026756 7.6971597123419 8.4012559515753 6.6743527748844 6.9048434420075 6.0837799192472 6.1486304975083 7.6916048562591 6.8992879952851 5.7735355822494 5.8673185355846 6.6129626846602 6.8249311432933 6.3698161941927 6.4571098442011 4.8879856347912 6.380159460473 6.1190392699573 7.3946576647171 5.8745911919872 6.8232802769745 6.5258668657201 6.8177678123318 6.223854614051 6.1952687964411 5.7779302465611 7.181645684794 8.3296626278305 6.4330376181781 6.4514656378069 7.2267249379007 6.9130524237564 7.739158292001 6.9901778695568 6.5281172082513 8.2545682354071 4.1966286787424 7.3200296451663 6.4501929725628 7.2744506483312 6.4729272303678 6.4535961362944 5.8558677536321 6.4898278017041 7.724873994775 7.3534058198683 7.4113804943779 5.8609682468833 8.1780577105959 7.3019341000684 8.0668298456039 7.4148876556305 8.545040075562 7.6814665616155 7.6937903768338 7.9320135021312 7.6213845918143 6.9870090198029 7.8706267304686 7.0728759826219 8.3996434330852 8.8648067746385 8.1078114877289 7.8779651990452 8.1041095314375 7.47932785502 8.1857301731709 7.5191734679584 6.5478259281235 6.8705627854356 8.1316076394536 7.3771617185516 6.7764278243729 6.3701082253911 4.1720563194592 6.2719449202384 5.6337120158132 8.0755408973459 7.3689025503169 8.3578300762579 8.1562676903859 7.5287411484258 8.3153360698796 7.2221529750158 7.845470363737 7.505530455944 7.4983852186645 6.9827351753742 7.6874170457557 6.7769782057851 8.0461833376225 7.3262443445819 6.9146623138276 6.1308091677676 8.3474661451246 7.6746617381319 8.094918969285 7.2732583776252 7.86433106669 7.211051040789 7.9579936497214 7.6313346208695 7.1904036564205 8.4017067678505 8.0937158853739 6.3836693796403 4.8001368383265 6.6569599284599 7.6128685458988 6.8880334118878 6.1295153277464 6.4474260531698 7.0186264985331 8.5017638269467 7.9668637026819 4.83100285714 6.9111546351073 6.879503834684 4.8358909094479 7.2530385453137 7.4897072636874 4.6266761688553 7.1774630497818 6.9095863397432 6.7465685319273 5.9202644667447 6.6726581019434 6.0884456529463 7.3483296858795 6.3264864935273 7.5171351463149 6.8381741901514 6.3698732217776 5.6741203267158 7.8133529749667 8.8806654323326 8.599927649269 6.7682989399925 6.3914767935726 5.5647484163562 7.5145932720948 4.5284759954433 6.425010790368 7.9944329439946 5.9705960999787 4.7461626541872 5.6638726734162 3.6784311746253 4.5762426448091 7.0285813299563 5.6772596235778 7.2314623517005 5.8329939275985 5.0837665075728 5.352369655332 8.1827713245928 6.7512344177808 7.2451948809833 7.6612165421848 6.7049508698354 5.8467093814622 8.2421007616363 5.8567488033453 4.3079911846787 4.5100937754623 4.652433628791 6.2819368487471 5.0487360343392 7.3034741908248 7.3269956286011 7.5318212016066 7.3619973246297 7.4449980029167 6.6806558062111 4.6130618459662 6.4750022988172 7.0028134705943 4.4865586912698 7.520152198966 7.4613279870747 5.6278921580115 7.5455366986074 5.1933153650417 6.9563182896576 4.7688278355587 7.3751268529407 5.1849547595071 6.8168684344676 4.5810177344305 6.552637974187 4.7422384801214 7.5030715026995 4.0455859765885 6.7916466976452 6.7930303581325 4.364759943724 2.9658357624614 5.3932237981091 6.4306959798446 5.6206357197672 5.3322655659208 6.8173455997395 5.9218599360987 7.5078630215454 5.5619262639579 5.1014267992428 7.0112798873889 5.6193341843216 6.8364003715973 4.8051657382798 5.5516047211419 6.451683447908 5.0602518543375 7.4799029701006 5.3483550857499 6.8433075029927 7.2170449031562 5.850767036397 5.0529895120344 6.2498116502316 4.3195693501591 7.1225865505646 7.2945973834597 6.4250586518936 7.7803164960688 7.2096514448784 3.6978833760736 7.2005484288589 4.7201549743823 6.3214615237738 4.7356208059313 6.820446571227 4.7400292606894 6.1702772497408 6.9385837629957 4.7886114829735 6.4635707774076 7.1250670409407 6.6967005248342 6.5031775114891 6.1068496441198 5.6106764303504 5.6212541251169 4.5918078799802 5.2808998266312 6.7792645820468 5.0772045530741 6.0894966579407 3.5556277816632 6.9061542485906 4.6570331247436 6.3402087661135 8.1182088868843 8.3455287169752 6.6473143767189 8.8087097038979 6.0453062584145 6.6357434211532 6.3359123191834 5.3709146348966 4.3240473477181 6.3101736206515 4.6176774344066 4.1544991879102 4.9629950994562 4.4765004587701 6.241301561353 4.8946588114168 4.5254867773528 3.2060620645637 5.6784387804394 5.458875748522 6.1375663769156 5.8516534551146 5.2663672060185 3.7116172241955 4.555737700708 5.9156695781091 5.5952510334997 5.7648203899013 4.5067749202407 6.0407384343501 5.680491563963 5.6179116308001 6.4795327090818 4.5659757998618 5.7556554960113 4.9797576960996 5.6062700276974 5.4782583392484 4.5776530383954 6.6388630485269 7.3328955439135 6.6205167484298 5.7325676218938 4.3943787759531 5.6387624003036 5.565542896329 6.8802224156949 4.9796491401124 4.3691951546188 6.6493553130092 4.9884668129714 4.1507874005309 4.8702934016692 5.5759339042267 4.2563123860696 4.4339145167633 4.8942417505391 4.6649025319566 3.6360931818233 4.389168070004 3.9887802438433 4.2313626179607 3.6162910146747 3.6110417986772 4.9318623477933 3.9657679275108 3.3034489223107 3.2367620030797 2.8505291805131 3.1788437538648 3.3812416520305 5.5883496307079 5.6083965518697 5.1567001276846 5.3020947823047 8.2956702014228 4.3841480767744 5.2150107831794 4.7462430895644 6.649188543624 7.2706407493521 4.3736908395503 4.7799870366237 5.4583395634182 6.7452409152027 5.0573380608447 4.9366888473965 6.5581225646709 5.2577552981894 4.0447092738208 4.4620107529375 4.6763938313846 4.2789907052855 3.5733860827565 4.3396412390525 3.7696752589744 4.3279594052018 4.8958591649079 5.1562970625935 4.0455313456578 4.2859619633562 5.7355651367881 5.1140490644325 4.1769838043813 4.5714063444021 4.0966908821584 5.2894259379246 4.1856837190945 3.0879486632026 4.7346785213976 3.9797233160075 3.4143351691651 3.8413459852107 4.5895499769707 3.6523089020088 3.5541242304043 4.9088982097341 5.3894502544354 5.3198397073981 3.5728730457833 2.9500974683692 4.0240922795445 4.9041444690744 4.8523133180214 4.8741546513612 5.2375592603096 4.3147820835046 4.4430605184405 3.8412231158225 3.6578777346201 3.2688992105097 3.6520796008275 4.3865443973442 3.2284964205223 3.1264484698339 3.9410594701078 3.325690116461 3.6038795012744 3.914746592699 3.7196030374773 4.4227621890865 4.0962265807632 4.8377368777674 4.7639113998778 3.8530269023942 4.0269967428452 4.4585363809033 3.7403382423583 3.351817278697 5.3029916619713 5.3199018665546 5.9470068924534 3.5511338738811 4.8735004678489 4.6549067342422 4.6903036334998 4.2881080464712 3.7086170681066 3.4029419697384 4.3317069419014 3.4741629829512 5.5028090318707 5.9754915806746 3.8235375861861 4.3856163394977 3.5056746128044 4.7541649824042 5.3937103396583 5.1595626069002 3.6506383615816 4.0462135717848 2.8321309596511 3.8437614744671 3.3794633514645 5.2157661436231 4.0706051232809 4.4153330147344 3.7007891311526 3.2707580130222 4.2480410198674 3.675141158047 4.4338946921702 3.2005982434077 3.2586967108716 4.8666277020825 3.8916672403785 3.4853497932951 4.4347233689539 4.0606848132253 4.8121314721546 3.3050401615215 4.1188859978191 3.6443262959148 3.3547975320659 4.3157555599202 4.2050086163232 5.1512372325446 4.2024227262132 4.8506474438358 4.8503238923823 5.591398488669 5.7664550020783 5.9624074422408 4.068972145899 4.9411107233433 4.4026862852793 3.5902922191871 3.2294667291551 3.6587467409816 3.3842130000982 3.8377280001086 3.8583139315566 3.2006818017441 4.4812189733734 4.9814141491359 3.5475138494272 3.3956679448084 4.4831036163217 3.3048509835974 4.4139768787927 3.5504468664516 3.5566555773674 2.9264869918018 3.8658990135425 2.9434199608217 2.9828764786446 3.6642476154009 3.2739756130021 3.7358649481021 4.4766216490744 3.7826549500942 2.9930783149326 3.1989008370153 3.5734557922752 4.310699