# vtk DataFile Version 3.0
d-2__ created by libgimli-v1.1.0
ASCII
DATASET UNSTRUCTURED_GRID
POINTS 570 double
14.5	0	0
14.25	0	0
14.386963504964	-0.201738469428	0
22.399299936458	-0.310870122736	0
22.129824335287	-0.229914148082	0
22.126320781198	-0.518791771445	0
8.472303742627	-0.591754876635	0
8.780507935475	-0.76092407121	0
8.82173151259	-0.349253271447	0
18.663262297679	-0.667179415955	0
18.934786529245	-0.453308328646	0
18.636898038907	-0.29588182328	0
4.016904362632	-0.85330676142	0
4.076038737616	-0.331410355179	0
3.713721571226	-0.470767763626	0
1.89953779852	-0.269343012166	0
1.633800503821	-0.203067612233	0
1.644492760828	-0.441295523531	0
4.368408037607	-0.250833874131	0
4.337474161742	-0.544420985055	0
4.67745607622	-0.378433532554	0
1.406172533733	-0.772361039307	0
1.913288206557	-1.218576310882	0
1.90687689783	-0.651895683444	0
2.5	0	0
2.25	0	0
2.347047126858	-0.185539804102	0
1.374000926997	-0.300418771701	0
1.25	0	0
1.114902662369	-0.201591505098	0
1.067401015567	-0.470108640981	0
5.75	0	0
5.699780065382	-0.324747799653	0
5.924584257371	-0.172748359932	0
0.883560935405	-0.231136840652	0
1	0	0
9	0	0
9.117836368049	-0.253904480787	0
2.625577516194	-0.346770599322	0
17.859079774019	-0.943547525024	0
17.535029634209	-1.703182852412	0
18.338018094476	-1.366069799339	0
19.932263871771	-0.826489183604	0
19.881635677668	-0.346204516721	0
19.622287080959	-0.573770479943	0
1.5	0	0
1.75	0	0
23.25	0	0
23	0	0
23.109690227386	-0.220340974338	0
2.75	0	0
2.142562771237	-0.172460438312	0
2	0	0
23.332392704446	-0.202507275941	0
23.5	0	0
19	0	0
18.75	0	0
18.888143078348	-0.195773419804	0
2.90152418742	-0.185685383897	0
7.612175045312	-0.180627982114	0
7.527150943175	-0.401430797998	0
7.881917737402	-0.30462800112	0
25.630635194756	-0.512020961038	0
25.243766894324	-0.80097755811	0
25.758031115142	-0.952821630144	0
3	0	0
28.84859809239	-0.201276387394	0
29	0	0
28.75	0	0
4	0	0
3.835807353334	-0.199536243303	0
3.106904732949	-0.178783649348	0
29.25	0	0
29.092446172194	-0.305987136665	0
13.5	0	0
13.667851890428	-0.185102765244	0
13.75	0	0
3.75	0	0
14.407363653886	-0.441423674912	0
14.125469935998	-0.279652141152	0
4.25	0	0
5.061980176718	-0.407989246181	0
5.335512032876	-0.269401530321	0
5.113979852892	-0.173834924157	0
11.882046000841	-0.812345557852	0
12.478640631525	-1.146569360669	0
12.244190771573	-0.565936619511	0
3.633270844505	-0.195395238442	0
14	0	0
18.378272976509	-0.514977451159	0
5.5	0	0
9.619519097921	-1.16461851757	0
10.030576753886	-1.587265312651	0
9.961661342999	-1.070235523667	0
5.25	0	0
5	0	0
13.157975569138	-0.830425793913	0
13.83833027638	-1.238601004239	0
13.671302359608	-0.710707966059	0
11.325917093147	-0.8366783502	0
11.612143285947	-0.506264798476	0
6	0	0
7	0	0
6.83842404292	-0.188923754932	0
7.11236984822	-0.391746146843	0
6.631875629497	-0.169178192832	0
6.75	0	0
3.21002197083	-0.595267231049	0
3.445510026908	-0.608065324465	0
3.362318141622	-0.306501255187	0
6.120159502895	-0.164221934939	0
4.538525595924	-0.906226152762	0
13.233775457127	-1.737244787017	0
4.5	0	0
16.138065841822	-0.472802517973	0
16.126746690205	-0.221608117926	0
15.859319180798	-0.326402762318	0
26.080401003391	-0.227842452866	0
26.25	0	0
26	0	0
3.019224421113	-0.401469974918	0
8.234901607028	-0.35771789179	0
8.518285578354	-0.242327591839	0
8.328777073389	-0.153008859619	0
7.25	0	0
7.400656881666	-0.195280611572	0
7.5	0	0
5.385509485898	-0.709154879541	0
5.948697127931	-0.745234910621	0
8.75	0	0
8.5	0	0
8.25	0	0
2.214249105773	-0.404278959534	0
2.896561357202	-0.792481120253	0
9.25	0	0
4.920911116561	-0.192028847294	0
9.651670336652	-0.200847798694	0
9.849824537955	-0.19917205686	0
9.75	0	0
10.095049354068	-0.315754204277	0
10	0	0
3.25	0	0
6.738406513564	-0.710129601907	0
7.121614580011	-0.943026074581	0
11.345829942703	-0.314788260019	0
11.25	0	0
11.104427225455	-0.188863495516	0
6.052412255932	-0.372556729023	0
6.373371846535	-0.274163514827	0
10.25	0	0
10.380281579003	-0.241092027437	0
10.5	0	0
10.75	0	0
10.909079077441	-0.189427130481	0
11	0	0
6.25	0	0
6.5	0	0
4.75	0	0
3.5	0	0
10.672815698565	-0.318467932684	0
10.772487906066	-0.787092734739	0
11.020900486567	-0.439266778492	0
8	0	0
7.75	0	0
11.5	0	0
11.619450354737	-0.231443672836	0
11.75	0	0
8.139317726831	-0.163309591658	0
12.25	0	0
12.158949464947	-0.235415698299	0
12.412455385193	-0.275030800337	0
12.929165084344	-0.221336108042	0
12.686337592177	-0.258437422252	0
12.900449535554	-0.462768612232	0
12.5	0	0
9.405755833308	-0.325979504745	0
9.111697192308	-0.594170467817	0
9.457257345083	-0.753685223931	0
18.101369157139	-0.618560521812	0
18.336839281097	-0.861122419318	0
10.385948631267	-0.570640149046	0
9.5	0	0
13.411260455969	-0.342646276848	0
12.643108055516	-0.590179775368	0
13.137744715761	-0.195204172124	0
13	0	0
21.25	0	0
21.358341816502	-0.326561417551	0
21.5	0	0
13.816492716597	-0.40394453634	0
20.25	0	0
20.423452336785	-0.313445603959	0
20.5	0	0
17.789350393153	-0.390447709085	0
17.987794057246	-0.401472255242	0
17.881276545163	-0.206424156589	0
19.564465692234	-0.270867872644	0
19.290725118801	-0.49926248604	0
16.392319441256	-0.29915360323	0
19.443730892406	-0.923508713428	0
20.457987075478	-0.803203365193	0
20.167450719332	-0.505159975143	0
0.103762538371	-0.253013629949	0
0.267057015134	-0.483604909932	0
0.374713194419	-0.2320817565	0
13.25	0	0
17.415572543912	-0.230682214253	0
17.5	0	0
17.25	0	0
18.108153655084	-0.208141099276	0
18.25	0	0
18	0	0
15.75	0	0
15.544586046819	-0.246453491997	0
15.122708481244	-0.193620038745	0
15.25	0	0
15	0	0
19.75	0	0
24.149237782749	-0.319013340846	0
23.842766599446	-0.577371105011	0
24.183995039967	-0.73159476451	0
13.871646321742	-0.17394291424	0
23.862588150518	-0.245417872715	0
16.84024277193	-0.203626765466	0
16.704049384397	-0.435508179396	0
17.112673188265	-0.38804641709	0
24.75	0	0
24.832880292394	-0.290571430318	0
25	0	0
16.40158555625	-0.755912194683	0
16.850299990829	-0.757941865332	0
17.75	0	0
23.567455674596	-0.325197491724	0
16.25	0	0
16	0	0
22.645812614293	-0.197864648876	0
22.75	0	0
22.5	0	0
16.75	0	0
17	0	0
24	0	0
26.914424714815	-0.337869958787	0
26.621963281699	-0.624626679172	0
26.977877660759	-0.778408201088	0
26.622424322919	-0.264588309935	0
19.34462271879	-0.199329831305	0
19.25	0	0
19.118057075065	-0.225686869553	0
19.5	0	0
26.75	0	0
27	0	0
27.5	0	0
27.604422363523	-0.298869962794	0
27.75	0	0
17.650384190064	-0.227839036584	0
18.343198956448	-0.236734208617	0
18.5	0	0
24.25	0	0
20.143897114391	-0.233773711865	0
25.5	0	0
25.25	0	0
25.344389320279	-0.31693710653	0
21.059546193318	-0.24845941382	0
20	0	0
25.842927934822	-0.248287716678	0
25.75	0	0
25.613904645132	-0.216025146631	0
21	0	0
11.763551406169	-1.481607093928	0
30.981104050195	-0.5526690913	0
30.873880294509	-0.217692518774	0
30.706626759758	-0.34945139905	0
20.75	0	0
20.85240828135	-0.178025243856	0
23.75	0	0
20.66289882074	-0.189089155251	0
30.204950808504	-0.791758966623	0
30.715535843381	-1.149995259266	0
30.543724897762	-0.572259098027	0
30	0	0
30.180216671806	-0.343473673313	0
30.25	0	0
23.229584388362	-0.458653998547	0
29.5	0	0
29.623391954444	-0.322069028408	0
29.75	0	0
21.618913855927	-0.233585823579	0
21.75	0	0
29.348490380579	-0.521100538161	0
29.36294710412	-0.230601226356	0
22	0	0
22.25	0	0
28.25	0	0
28	0	0
28.129259193923	-0.314252106503	0
28.44374413871	-0.484576386004	0
28.100199615755	-0.812038297775	0
28.649230646972	-0.871769248311	0
28.618403654115	-0.227691192115	0
28.5	0	0
28.387848605749	-0.205892081491	0
29.054768525933	-0.708603081552	0
29.344906532636	-0.846887322836	0
26.327430876245	-0.35930637997	0
10.349120516034	-1.04150119828	0
10.894920134778	-1.514321070539	0
24.59640839418	-0.191760546865	0
12.75	0	0
24.5	0	0
13.102881121377	-0.411296235356	0
25.099388239946	-0.214879887129	0
25.97986022697	-0.52841375324	0
24.398993403151	-0.196312410538	0
17.860840746535	-0.577367743328	0
17.566481510048	-0.529340016102	0
26.5	0	0
16.637148248735	-0.188015807345	0
18.183918302467	-0.396443618316	0
27.159348252167	-0.205297590358	0
27.357530053515	-0.198815038154	0
27.25	0	0
15.060354649709	-1.112587998155	0
15.51532665618	-1.043792149387	0
15.178150912169	-0.713100616689	0
10.051363365948	-0.719159376333	0
14.661248691948	-0.27865166374	0
14.75	0	0
27.868836823455	-0.217301839861	0
31	0	0
30.75	0	0
-0.020273477909	-1.415389842481	0
1.054972770973	-1.487485199502	0
0.512583677021	-1.0438154777	0
0.75	0	0
2.361419414365	-0.794513604096	0
29.890297721653	-0.2433406165	0
30.473599299501	-0.238575611274	0
30.5	0	0
30.660802173874	-0.161931182737	0
28.783812899585	-0.467926883932	0
4.937022539393	-0.72440615077	0
6.696914540879	-0.380672503721	0
7.434272221796	-0.695675918868	0
15.339606453815	-0.166204802571	0
15.281953315711	-0.388999642276	0
11.893544445085	-0.335972898148	0
12	0	0
9.753796445798	-0.478866225926	0
7.720012958977	-0.638314519759	0
21.871398197179	-0.313006985103	0
21.615176662754	-0.521922347305	0
21.856785525528	-0.665128848631	0
20.792152536902	-0.448319093295	0
21.109577821412	-0.527879642114	0
21.360297691811	-0.734200004244	0
15.547854961707	-0.580173571081	0
24.496861814148	-0.467031445896	0
25.067351422649	-0.463427753535	0
24.81263825963	-0.684738154192	0
22.865620821195	-0.218348593093	0
23.443705587002	-0.773171720633	0
27.277617447467	-0.489224417775	0
27.863714790534	-0.471681393437	0
26.239117668995	-0.863279739365	0
29.896797054636	-0.547765129844	0
29.612773839625	-0.699757135752	0
29.867172666547	-0.87444432816	0
29.610354212963	-1.521444655905	0
29.59548165142	-1.071765512911	0
29.115129171034	-1.220660174798	0
31.345359428525	-0.458952144926	0
31.144859415042	-0.241304201582	0
15.919565295974	-0.746550096707	0
16.063006820294	-1.289595303187	0
16.5	0	0
14.900855313538	-0.178071167744	0
14.161016743654	-0.72559708689	0
19.011498044983	-0.834202892304	0
16.760433281999	-1.263698818643	0
17.280361389946	-0.931704507314	0
-0.627742252535	-0.296285438777	0
-1	0	0
-1	-0.5	0
0.625738545692	-0.228405936136	0
0.5	0	0
3.313957665883	-0.865581185485	0
3.619156095452	-0.800599314657	0
[...]
CELL_DATA 986
SCALARS 100.00_0.33 double 1
LOOKUP_TABLE default
12.319121800341 10.725026907748 8.9232121784877 9.1197005023991 8.0452072332481 10.903307687199 9.5924565357722 6.2133717746112 12.230128431246 10.273847360683 9.6002257642072 12.506325753105 10.658031097833 12.197490060629 12.078088605203 10.786319533536 4.9647633274879 8.6802569277113 13.079734483384 13.75694669111 12.448872313148 12.326048461846 14.10956536258 11.645226616593 11.049852409046 11.961864079966 11.581516399891 6.8351631557362 12.313261772801 12.134781081767 10.934592938681 11.533893439746 12.444580535917 12.640738659866 10.680048982296 11.448371123979 11.672153036503 10.819314386533 7.2298103170933 10.802693247043 14.325936077582 9.0452901155789 11.89264345314 5.3760107010799 11.738238734269 11.435587815612 7.0088914159599 8.2145642166606 12.921033698918 10.314655568061 11.409280858687 10.400866695598 7.9275316567865 11.817772985237 7.7842413746775 12.760356140971 5.3552307516126 12.296028551336 11.209460618982 10.644608040822 12.123904761116 10.477186942929 11.976344749137 13.065628021932 12.857638261085 12.476484854639 8.3603604591582 8.5912750762036 12.501249628571 10.046051916691 12.90862347223 12.42904162628 12.317361886275 12.823499658124 11.373287169459 8.4970153329053 11.229793231835 11.855791256905 11.924528878779 12.084121714983 10.754483704949 7.6647419973834 12.292379043087 10.603549496146 13.298660855459 14.333247553584 11.373346881232 12.910194176461 12.599212514148 11.367086174684 11.666794377814 12.930906336674 10.346183600304 10.994340758458 10.039239954945 13.546712540717 13.565154970519 12.917080537318 12.127247054779 12.295449469142 11.043332374105 14.072748433142 10.949882715752 11.407105784605 9.0032019387603 8.0724257850861 10.975004284584 10.788402418737 9.1027414839783 10.923108057346 10.180236500518 12.539918560963 10.571047982961 11.211648030369 10.194588938718 15.897185746878 10.798390514609 12.747720768213 9.7256533900875 11.28962158575 7.9904499909773 13.254725473513 9.3202219254118 9.5458158270034 10.305432749329 12.370634141876 9.389684804042 9.7327320419987 13.64911646404 12.251794544992 11.057317019654 12.888397239545 12.412169181767 11.932047048351 8.2916407798018 11.682836518722 9.8269065856537 11.806708760697 10.954205156155 8.6871798651716 12.015946166741 9.6514591278745 13.073842468495 12.279535871635 15.914905725998 13.518749102055 11.31862036183 7.767157140563 10.356622777678 9.0789287985697 12.156783942908 12.449269487108 10.983887479063 12.424603067013 11.192654755427 12.060939202095 12.21669631327 11.226420490772 10.46763056914 10.238845443195 13.838842067971 11.628040537245 11.39764660877 13.854292060234 12.559471318719 11.800266338069 6.1800280695434 9.9397629953861 13.057120062812 10.877458349095 13.197024713008 12.47340545159 6.6725806730201 9.3224346793157 11.561239687117 10.466611508595 12.765750835392 12.465875706726 10.2842818321 11.429314715969 14.207236200627 13.178409872177 12.416261004419 7.3611082353398 7.2770723357097 12.966984213653 12.025661940423 12.833779272586 10.614695690645 7.8799616778563 9.0846988649381 6.1564664067804 10.870198909199 7.2955888751327 11.331425176134 11.625483040876 7.1847704774315 11.741627823812 12.077548817928 10.341324019845 11.945843363081 10.315481976643 11.649295440243 11.658341837926 11.877499165209 8.4596096076324 11.620370827588 10.855975432995 12.511448285348 12.522656118681 10.649744926664 11.523121919754 10.081361450285 10.566781326845 10.853793075986 10.906605445069 7.2433046632408 11.052975919468 6.5935494350786 10.720463635224 11.148964333148 12.919180748901 11.707747704425 14.425785240863 10.398859425532 12.06139213692 12.1057336331 10.167800592781 9.382241415262 12.604071923902 10.97203788574 5.1378713249911 12.64326113622 12.110642505928 10.340415730074 11.464064357765 10.517024204862 7.3852591432945 11.228484080821 9.4179442494598 9.5673390857048 8.980177838524 12.381271940973 11.414920234173 10.720350841697 11.45432629892 11.340579352151 10.708356870393 9.747874801817 9.9989680195206 9.7032522646627 10.442550027722 7.8594889834409 10.982265527822 11.377339393494 10.175917880742 13.083998002908 10.681826823595 12.417617406446 7.970020642975 10.813926542092 10.459515499485 12.425292944563 11.169624109425 10.337177062023 12.786403246541 9.2980241073565 12.948778602722 10.275695286346 10.395712669967 9.9995514201963 10.774317800044 11.250351842041 11.009127942394 12.022427164088 11.989434651038 12.094253913808 11.614600743582 11.386055088101 12.966113815166 8.6934416784794 12.740608720837 13.354529809717 12.603869430043 7.646232408737 13.357001031572 10.943341012936 12.671131674998 12.838225241938 11.450512095091 9.7761949046778 8.8921734624377 9.0421610875837 13.365158564111 10.631810655627 11.093405345931 10.87299316928 11.656308231523 11.75529879982 12.181816043237 9.1457659568648 13.05392154541 12.667012613715 10.889631656809 10.109599094351 9.0165250509007 11.006274574753 12.328616378077 10.576266935586 11.746112977583 10.591926439177 11.906129044181 10.643548055511 11.005981738536 10.821390738054 9.1260936521576 12.008893031494 8.6494279013056 10.088624053105 11.642988474632 9.5300570857223 10.931949796479 11.04737368275 10.413991509746 9.7845571815615 9.6320607878375 13.577616908679 7.7812721149512 7.2304858050291 5.169733711298 9.65913213248 8.411430079265 10.357827034275 10.508445337279 9.4644596570158 10.913492639316 10.493451824745 13.315316582583 9.4097224470606 12.158424359874 6.8078874375792 8.5388780291507 13.338412805561 12.827648531321 11.978296964689 10.473806054343 11.605009368592 11.494355236693 10.869532422091 10.188629386875 11.002545585773 7.290842749624 10.357483792917 7.1183517955859 11.339349983103 6.7070685887546 6.2882532261696 8.460202292619 9.647858613656 10.912461176855 10.895896618009 6.5738358706753 7.906291566194 9.6090290317284 11.750503755035 8.0876425393957 6.8435770714724 6.5865053353255 7.4448940410638 12.018127545894 12.821619014719 10.81864010348 8.9369244489925 7.6919558000648 9.4395143651499 11.106371784634 8.7546635426276 12.611916482679 10.726767227959 7.9051610255553 6.0621119496106 10.036984951689 10.175511167238 13.249746059019 12.35681379448 11.072497324007 10.286517713697 11.832788813342 7.5671622314288 13.511283907737 9.3944411456592 9.1655013153318 7.8548877063442 10.974571288139 9.2509366584905 12.241851668199 9.3813950976202 9.2549898244218 12.330961927876 10.327350913828 12.431025758333 12.556246985438 10.748020173965 10.48977874122 7.2214148770976 12.342758411853 7.8419563623853 10.764360670046 11.245723301904 11.152934714722 12.507026886646 10.00000456538 10.955203462317 8.9414688754783 10.547204621405 10.52018173255 8.5303771815197 8.1117978148192 6.8689517795153 9.2003631843814 6.5862931320186 11.850430234759 10.133125688831 8.4584693562335 8.4581652485041 11.071198435413 8.1527573336174 7.46444523195 9.2585355970864 7.4578149398641 8.4200280590852 12.279556490509 10.577954416331 10.588161226749 11.271582929375 11.323408101702 5.7918216248692 9.3713874784887 5.4853853493145 9.3243510900375 5.953170501404 8.7857570947513 12.547293572514 10.602824515884 6.7384293295188 10.631597304629 4.9055476148728 11.499576010161 8.2789688268951 9.281820729287 12.70678751334 12.200326309693 11.429435755703 9.4419064364747 5.8610307554742 4.337469373835 8.8938999372469 11.11683107586 8.557371211998 9.9680209475167 7.9862213861774 10.500097002279 8.9366241362461 10.139257978375 9.4318387264316 5.6989161953056 6.3065063634312 9.8217434960438 6.8115507269899 5.6096679876141 7.1396707243211 10.496632447507 7.2473140900813 5.7554750671041 4.8810427470763 11.32789691305 8.8520678070626 10.284853478593 8.8736193055773 6.28793132664 8.618140638594 6.4115190912458 6.6967717541569 11.63052858469 8.988347122007 8.7825473005368 9.2770559175775 11.650764717872 7.7646075500106 10.506098833767 5.3376639108344 8.9690837379066 13.515147473183 12.138261004282 9.2317193704344 6.8573595234067 5.1130967305637 3.8540050901534 7.9878644131844 11.157158123238 7.9363802518936 7.372378270713 6.1734001263738 7.6975968124063 8.6975290027325 11.200847323206 5.8364135371046 10.158488872491 11.259549091929 4.3523459990675 9.3307690860866 12.784126167967 11.460781639864 6.1083409055523 8.6550904938452 10.172351282214 7.3657634523757 6.5534366333262 5.5916963390692 10.992717619078 10.626040265363 5.7879614501886 8.626539669421 9.9770973721137 6.9923926116691 6.0777443475724 5.2964598132113 10.909951338273 9.4050859624982 9.2844649769186 7.9747177586711 10.61387284924 8.7695907147514 10.199251776604 7.7852782881127 10.22383550697 10.926949518778 10.077215166671 5.2368047223256 3.3550716122918 11.546401403071 6.0353671025561 12.647504634286 9.5664613509959 5.9279922235667 9.8950069883755 3.8948395256892 7.6205887019397 3.3648131466906 4.4704767431241 9.9382300776933 5.9864954794696 11.567848071908 5.7742604074725 10.81413184884 9.7096887276298 6.6962271086969 10.189368115732 5.2693801862661 6.2910606238415 8.2432063624164 7.0225754650108 8.4903604813241 5.9877533985804 7.6325271495881 9.9342337662086 5.4462891286317 4.6670384942668 9.3041039769829 8.0500594743014 12.772006495094 8.3768232856038 12.061211847185 7.2780497283646 10.119942995227 10.242323456371 6.4758498623671 4.0717659580134 8.6515055539528 7.4944746473107 7.6060585881856 7.7293126975944 12.239395108907 10.482836045492 5.2985689946441 10.041149688498 10.938595711859 8.5991780405592 8.9458203365455 7.8971727576552 8.4487094598879 7.437944677335 4.1261129786203 10.178420440068 4.232285287106 8.325910459574 9.612537391001 10.626688978661 6.5096940211477 8.5445823468971 9.8438147194523 8.7457264020268 8.0466140794032 6.7176090346736 5.2217229814896 4.1747479601687 5.3479558494457 7.8603830548134 9.9494953511416 7.4867025844949 6.2795320871049 7.6093093999134 5.8718251533953 12.650604492339 5.684333657268 11.725482024765 10.525687773878 3.6854063488424 8.9302605156444 9.7255500390695 9.9866323258882 8.7641085198659 7.3794725882009 6.2595435712694 6.1880330903999 5.9711545374712 8.0600068906987 9.8526403674523 3.9817037600795 5.177298618039 4.5525241153127 5.6792554624011 4.9863471835454 9.2290592908011 6.7094918161053 8.8178240857617 4.6924610903949 5.0003010040225 5.8847247016943 9.0223255300706 4.3610789489615 4.1655421695667 6.9571935889124 5.7983457284427 3.5330194542668 5.9428713186543 11.713696398207 10.086455585692 7.3983136275628 4.7086979769939 5.4484565480496 4.5975898526855 8.6139979062961 7.727055837631 8.2361629788827 7.2070474608476 10.110078645518 10.025082059297 5.5520389899908 9.7169763006774 6.0104263935166 9.4928842585637 5.5135527468124 8.5941212530838 10.146211831986 6.9634327562406 8.6825377788441 8.0574803440467 8.7251409181534 9.3606633930409 9.6142444194814 7.5918530397762 8.8874636078336 4.1474918065202 5.7201385708497 9.9713521201682 4.0919200571097 11.12913609485 7.2227519130141 6.7227953571026 6.610989243968 7.8159844900803 5.7845740676757 4.9738482491195 4.9973082323729 5.0016459063516 5.0681725188999 10.258625780914 13.826658829655 11.83910658247 10.806486845429 4.2277021927321 3.1426709646148 5.7248367305054 6.2454369938753 6.7163983841609 5.6973798554286 6.2972906089925 5.219656487048 6.6875562662004 6.9688273257777 6.7482609941974 6.5193767330834 6.8454820101425 6.6788700526611 6.1611314015847 4.7366502462294 8.5036332731229 8.2355518721438 4.6551314907715 3.2925392161252 3.2590898890869 3.6120636631885 3.9799854656118 7.0288878777023 6.5365582121618 8.4988820187919 6.4854272379019 13.378735203088 12.491775506764 3.9506327418921 4.402544304479 9.6730504968273 5.78451664638 3.8463944374542 3.8736482201066 5.3825002950763 7.5210662310924 12.249266114035 7.3884587822725 7.3817960687788 5.8258307215014 5.569161509269 12.210275057019 4.6670817107068 8.9973257266363 13.694438940101 5.9206219268098 4.1474445099192 9.6542319398783 9.3673840790876 5.3270066688678 4.6096613848441 4.5571886349813 6.7963606867236 3.4272920178731 5.3230979728786 3.5335364288732 3.4968280561492 4.0491412601642 11.124110438889 5.0398532281208 5.6332163364531 4.8802642137779 5.2944800271221 4.6119642757944 6.2353156025569 11.614768387054 3.5265110419096 6.2543440192896 3.1372300170904 3.7472470848171 5.159178160927 4.4666069888531 3.8460138852387 3.577178044503 4.1043837493383 4.2356360652962 5.4410752806749 3.6596454685887 10.423301220858 5.2000245839925 3.5905358157392 4.0752362476091 4.8968927647097 4.8098211762366 7.7574171213747 7.2513452654149 10.523104801417 8.8135402528381 6.9027731881832 8.0462726165107 5.7286459224966 6.8806734184263 9.2474589220252 8.1867388347877 5.1712883183655 6.1962310900647 5.7966773136705 9.6489086199972 7.7041709001804 3.4451967436188 4.4945435163269 5.2203910693502 4.3115270708136 4.4843115523966 3.9936368689016 4.1213020765017 3.7059099465366 4.5133280418521 3.7643812944032 4.507960265663 4.5669304976382 12.103217487525 4.4781696988559 5.3843902864274 5.2051210207497 12.304279295541 8.3757796301583 3.4630856285364 3.4419455743113 3.4452647342932 4.3782789823354 4.9744320301569 14.070273541944 3.7286481824688 4.2105614314094 4.4185618917925 3.1798912759214 3.6674930533784 5.0994871507939 4.1653234394476 4.0461123615021 4.0494065061045 4.1408613541632 4.1020988950028 3.5588579225923 5.0984909069166 3.4511708631277 3.6667544095019 4.3165323791066 3.403595490107 3.3229557362326 3.6907447106651 3.3367051456251 3.5597120043819 3.4401612081017 3.5583129011337 3.4994957156706 4.4653342422309 4.0439339916973 5.3733254198049 5.7490961052815 3.3836745796867 3.1722913968878 3.1465029736537 3.5088083802224 3.082414748785 3.1903058866724 3.2953891921636 3.2375685202363 3.5476333694722 3.8445890331106 3.3928487097334 3.5431502644564 3.3144088651615 3.3845538040682 3.8818473490492 3.8676506697973 3.2975929301538 3.311466545073 3.4055624370466 3.2168696845749 3.2634105048156 3.33858164812 3.3910691688455 3.4955086536476 3.439477872642 3.1231293090399 3.5663677932105 3.188806834571 3.0663881259308 3.2218739814706 3.5845050007376 3.2307798768844 3.1252074302254 3.2496833606809 3.2757248618956 3.3336504792611 3.3540946909474 3.4014348822063 3.3093184808504 3.2556881227715 3.5837560272889 3.085599920525 3.57947919098 3.2532306732676 3.1836517505337 3.2668705915104 4.0404117601225 3.3536980956904 3.1751754920983 3.2464762700596 3.6929854967917 3.3797548043277 4.199226131119 3.2344890341599 3.2501370659141 3.1643872860973 3.1610371248251 3.267796744044 3.3144031043558 3.6384229050054 3.5531132489437 3.1189967937439 3.3904968420479 3.3354288616335 3.2745004098082 3.261907967436 3.379466054601 4.0818195531435 3.421230452276 3.2988105364654 3.1667535008936 3.6948557660852 3.2653548817912 3.6820407869445 3.3763595490385 3.5600341106844 3.099360555151 3.4184114484961 3.6759194420366 3.1797157150344 3.5447901704036 3.6949210890699 3.4397953300842 3.4180680356493 3.463652227284 3.7077712710829 3.6260824982203 4.0839214771754 3.5193470688464 3.405588738376 3.3354195393766 3.2195362987623 3.4355805898422 3.3959288425667 3.9833807711413 3.9209714054953 3.4688368296444 3.748311950162 3.6845248711171 3.702560375648 4.3042971382948 3.8290008639757 3.5743584397024 3.0651208991461 3.5303042968267 3.6646245849949 3.3512922569601 3.3645873047025 3.376272128019 3.9058981217647 3.4497690317948 3.6243821562628 3.3653377550654 3.6920314151581 3.6085666122939 3.9311551213413 3.8626889356822 4.2155866106938 3.8483042158331 3.8143887615682 3.7031248963308 3.8228137925951 3.8946189695837 3.7732415887885 3.995277609915 4.0504460183156 3.9658326395314 3.6044497943889 4.3634857381638 3.7912005176142 3.2989526325276 3.6349159458298 3.8721520103329 4.159334692097 3.884901901864 4.0284258742509 4.2761747852578 4.240970870473 4.4739392393793 4.4364310550957 4.2654368387462 4.5703706247466 4.4719671708245 
SCALARS 200.00_0.43 double 1
LOOKUP_TABLE default