# vtk DataFile Version 3.0
d-2__ created by libgimli-v1.0.12
ASCII
DATASET UNSTRUCTURED_GRID
POINTS 1303 double
5.625	0	0
5.511811217919	-0.146388704457	0
5.676386535709	-0.13519637448	0
0.25	0	0
0.175228502521	-0.179050409113	0
0.326009290428	-0.144330725415	0
0.375	0	0
0.990207725992	-0.114957291708	0
0.841075314552	-0.137634199948	0
0.926498288371	-0.349340723189	0
-0.001071200562	-0.386156929004	0
-0.003317641763	-0.130454088023	0
-0.192720422374	-0.216308252768	0
1.25	0	0
1.175215748534	-0.200562384647	0
1.341115762259	-0.128605193971	0
1.375	0	0
2.25	0	0
2.168494514827	-0.19848886597	0
2.338304607341	-0.128945294536	0
2.375	0	0
1.911268305082	-0.334701951691	0
1.986191885908	-0.110806668109	0
1.838390258011	-0.128853462534	0
1.75	0	0
1.670105949089	-0.197137117999	0
2.986685504441	-0.10889534818	0
2.838723720416	-0.127406828384	0
2.912854264006	-0.329775839393	0
0.75	0	0
0.664572693147	-0.222613872306	0
3.25	0	0
3.168798596028	-0.193682232199	0
3.337828500197	-0.125181208794	0
2.875	0	0
2.75	0	0
4.25	0	0
4.161099470995	-0.193412132741	0
4.332718836325	-0.127723897736	0
3.83511440706	-0.12403687807	0
3.875	0	0
3.75	0	0
3.901908238995	-0.321557035295	0
3.983050435256	-0.106770030737	0
3.665527023987	-0.190866765849	0
5.25	0	0
5.164693411436	-0.21656556845	0
5.338419985376	-0.147288917438	0
4.834321952324	-0.135810575609	0
4.875	0	0
4.75	0	0
6.25	0	0
6.178399669611	-0.137425451145	0
6.356205370496	-0.193853696818	0
5.817814980918	-0.161175429964	0
5.875	0	0
5.75	0	0
6.611939839541	-0.314381537706	0
6.522886280605	-0.104721203126	0
6.75	0	0
6.669178832877	-0.119404962711	0
6.836073690852	-0.177498311423	0
5.39059629209	-0.37339102075	0
4.660917359886	-0.204007052252	0
4.902096977384	-0.356327271651	0
14.897042426984	-0.319128540459	0
14.98121339776	-0.105010975498	0
14.832720105416	-0.123004000492	0
2.669265824618	-0.196872625129	0
7.656019919505	-0.144451020927	0
7.75	0	0
7.625	0	0
6.625	0	0
8.75	0	0
8.672937461928	-0.164309120831	0
8.834289374889	-0.109279841483	0
8.206809119751	-0.294811800109	0
8.187056112549	-0.110869448227	0
8.024316200302	-0.129362764133	0
7.157390904024	-0.111206354394	0
7.25	0	0
7.125	0	0
8.25	0	0
8.125	0	0
9.75	0	0
9.651145885459	-0.185384966231	0
9.827054067621	-0.122428024454	0
9.381816956327	-0.305807769915	0
9.476753337472	-0.101567493772	0
9.327490061855	-0.116748040282	0
10.75	0	0
10.655660803951	-0.196164841752	0
10.830485405183	-0.127989131147	0
10.386748323888	-0.329675548046	0
10.478464938155	-0.108955040137	0
10.328560245085	-0.126395562242	0
9.25	0	0
9.375	0	0
10.25	0	0
10.15270392044	-0.192469144253	0
8.328856990144	-0.128933011689	0
8.375	0	0
9.153857570119	-0.175508527296	0
11.75	0	0
11.660624577581	-0.201812344528	0
11.833823570609	-0.131890823957	0
11.395399221028	-0.337817920558	0
11.481219500696	-0.111845889235	0
11.331881500183	-0.129806070652	0
12.75	0	0
12.669299873111	-0.199190799603	0
12.839534650452	-0.128328673855	0
12.40897914742	-0.340185307353	0
12.485654611126	-0.112072117633	0
12.336727606385	-0.131188239877	0
11.875	0	0
12.25	0	0
12.164627546098	-0.202605127067	0
13.75	0	0
13.669268468008	-0.186168180444	0
13.837322273199	-0.120178339978	0
13.416957459915	-0.319650485848	0
13.487510959619	-0.105281058988	0
13.34010202956	-0.123833443479	0
14.75	0	0
14.66080663422	-0.189613659871	0
14.399926333663	-0.319306441484	0
14.4823067449	-0.105599641009	0
14.334114343934	-0.12250571155	0
14.875	0	0
15.25	0	0
15.158227025815	-0.185762723401	0
15.330441202311	-0.11956675178	0
13.875	0	0
14.25	0	0
14.163960939829	-0.186365139356	0
12.875	0	0
13.25	0	0
13.171786689458	-0.193064330135	0
10.875	0	0
11.25	0	0
11.158129238503	-0.198418008741	0
7.31587636932	-0.171642077952	0
15.3902841013	-0.308450173235	0
15.478958243586	-0.102394874489	0
-0.125	0	0
0.125	0	0
0	0	0
-1	0	0
-0.706889652808	-0.331752981492	0
-0.5	0	0
1.125	0	0
1	0	0
1.625	0	0
2.125	0	0
2	0	0
1.5	0	0
1.488007132967	-0.109900770852	0
0.5	0	0
0.474245721096	-0.130043839003	0
0.625	0	0
3.125	0	0
3	0	0
3.625	0	0
4.125	0	0
4	0	0
3.5	0	0
3.485533411273	-0.107014956798	0
5.67736414417	-0.368119689468	0
5.125	0	0
5	0	0
4.98353533542	-0.118243061674	0
6.125	0	0
6	0	0
6.009467825362	-0.139471566496	0
6.5	0	0
4.625	0	0
5.5	0	0
4.5	0	0
4.481603306259	-0.111052305129	0
2.5	0	0
2.486482293556	-0.110456056597	0
2.625	0	0
7.828740664136	-0.157959666613	0
7.5	0	0
7.497789303332	-0.098817221798	0
8.625	0	0
8.5	0	0
8.493725508365	-0.094448160765	0
8	0	0
10.625	0	0
9.625	0	0
9.5	0	0
9.125	0	0
10.5	0	0
10	0	0
9.976983002093	-0.106037154081	0
10.125	0	0
9	0	0
8.980258705317	-0.095443922293	0
12.625	0	0
11.625	0	0
11.5	0	0
13.625	0	0
12.5	0	0
12	0	0
11.983083448534	-0.113269018621	0
12.125	0	0
15.125	0	0
13.5	0	0
13.125	0	0
14.625	0	0
14.5	0	0
15	0	0
11.125	0	0
14	0	0
13.984735949845	-0.103165953766	0
14.125	0	0
13	0	0
12.987740386932	-0.109238757727	0
11	0	0
10.980033547654	-0.110118532971	0
7	0	0
7.012790729926	-0.096165366155	0
15.625	0	0
15.653391866104	-0.184257106926	0
15.75	0	0
16.25	0	0
16.151956269841	-0.190746813766	0
16.328162175541	-0.125534698515	0
15.827345422636	-0.12109528269	0
15.881623705918	-0.315197408181	0
15.9768075603	-0.104841845177	0
17.25	0	0
17.155473725888	-0.187015736188	0
17.328334720487	-0.12053442359	0
17.375	0	0
16.97978281674	-0.105790715925	0
16.830585534618	-0.124270763258	0
16.892220832712	-0.321708894118	0
16.75	0	0
16.655725821363	-0.19281499559	0
18.25	0	0
18.144056513649	-0.199584109463	0
18.322695877645	-0.133173012767	0
18.375	0	0
19.25	0	0
19.156955168382	-0.212194778097	0
19.332395147696	-0.137501625504	0
19.375	0	0
18.978107771567	-0.118463258117	0
18.827251646435	-0.137822523984	0
18.884674261801	-0.359498065923	0
18.75	0	0
18.648603260315	-0.210400354993	0
17.973004229039	-0.108213471414	0
17.823362138939	-0.124125311933	0
17.87020700187	-0.324156104502	0
17.75	0	0
17.64837652944	-0.187413016584	0
20.25	0	0
20.167288289523	-0.206556633625	0
20.33799343326	-0.133667464393	0
20.375	0	0
21.25	0	0
21.172020853715	-0.201327641466	0
21.340729826518	-0.130206344264	0
20.875	0	0
20.75	0	0
20.839555732676	-0.132066213667	0
20.987710400762	-0.112937783384	0
20.915843633601	-0.342386775443	0
20.669904108595	-0.203936882105	0
22.25	0	0
22.168893714495	-0.194483818359	0
22.337089427477	-0.126591453251	0
21.875	0	0
21.75	0	0
21.840184239699	-0.127666317168	0
23.25	0	0
23.162361450448	-0.215073727418	0
23.335945395372	-0.148199257458	0
22.875	0	0
22.75	0	0
22.83504078106	-0.133126573368	0
27.412614995451	-0.337768305098	0
27.406417478875	-0.760610856776	0
27.663031754041	-0.476449210851	0
23.674319496044	-0.139602731619	0
23.75	0	0
23.625	0	0
22.902876337082	-0.348446434986	0
22.664415839639	-0.19979598046	0
21.987454968006	-0.109075483352	0
21.916658702332	-0.330379709848	0
21.67241042914	-0.19774510361	0
19.984830323221	-0.115851903278	0
19.835879034474	-0.135573032779	0
19.906686139011	-0.351521653308	0
19.75	0	0
19.663378765328	-0.209646647928	0
24.75	0	0
24.672305039303	-0.121865624882	0
24.84054616259	-0.178479133746	0
24.25	0	0
24.125	0	0
24.179559510218	-0.145425217914	0
25.656694723316	-0.141492417978	0
25.75	0	0
25.625	0	0
25.25	0	0
25.125	0	0
25.159224348757	-0.109007087058	0
22.647257188685	-0.476376729768	0
22.872248033711	-0.780455516934	0
25.317652966423	-0.167196322239	0
31.908525182248	-0.237434634112	0
32.248547795208	-0.367887731521	0
32.025	0	0
26.398062594932	-0.327144710524	0
26.335089901602	-0.124890632532	0
26.169730315141	-0.188549564961	0
26.75	0	0
26.662500836065	-0.197477656933	0
26.835401004001	-0.129534360312	0
26.375	0	0
26.25	0	0
27.486869476066	-0.111474770432	0
27.338367230812	-0.130187170762	0
23.816158307302	-0.168335740772	0
23.875	0	0
24.625	0	0
27.75	0	0
27.67023663024	-0.198727549038	0
27.839431305592	-0.128541986375	0
27.375	0	0
27.25	0	0
28.75	0	0
28.666013303123	-0.192953151514	0
28.835335299513	-0.125393524551	0
28.875	0	0
28.41074998604	-0.32692743598	0
28.485854239984	-0.108071323096	0
28.338261561589	-0.126341817439	0
28.25	0	0
28.169650699531	-0.195402875109	0
29.75	0	0
29.656991685033	-0.201213204108	0
29.830700495316	-0.13323291855	0
29.875	0	0
30.75	0	0
30.665605116896	-0.213760177502	0
30.837855425721	-0.139272404211	0
30.875	0	0
30.987248292653	-0.119871959545	0
30.911614165903	-0.362389547989	0
31.25	0	0
31.174363802618	-0.217041176186	0
31.346460135447	-0.143418487957	0
30.400599561582	-0.360265197586	0
30.483280501431	-0.118794220148	0
30.3336351656	-0.137924489201	0
30.25	0	0
30.159375273254	-0.21004086356	0
29.392934647931	-0.331414044449	0
29.48031118177	-0.110263057575	0
29.331777210358	-0.127344913482	0
29.25	0	0
29.160548153072	-0.194064979946	0
27.167334579456	-0.200440763045	0
24.359650796728	-0.20304719459	0
-0.25	0	0
-0.404335947278	-0.221464959739	0
16.125	0	0
16	0	0
17.125	0	0
17	0	0
16.5	0	0
16.478267427857	-0.108008273171	0
16.625	0	0
18.125	0	0
18	0	0
19.125	0	0
19	0	0
18.5	0	0
18.473681471998	-0.115768873419	0
18.625	0	0
17.5	0	0
17.47687846862	-0.103462148239	0
17.625	0	0
20.125	0	0
20	0	0
21.125	0	0
21	0	0
20.5	0	0
20.486446843971	-0.114298370976	0
20.625	0	0
22.125	0	0
22	0	0
23.125	0	0
23	0	0
22.983281399654	-0.116385827149	0
23.5	0	0
23.509214189908	-0.149359691049	0
22.625	0	0
22.5	0	0
22.48467632496	-0.1093719097	0
21.5	0	0
21.488472844532	-0.111208801785	0
21.625	0	0
19.5	0	0
19.482219828947	-0.117572233456	0
19.625	0	0
24.5	0	0
24.525433875838	-0.108080714825	0
25.824234283709	-0.149177038136	0
25.5	0	0
25.498573523516	-0.096586408813	0
25	0	0
25.014769107289	-0.095147895568	0
21.919931345447	-0.741308582321	0
22.160361550711	-0.463896476278	0
26.625	0	0
26.5	0	0
26.482631880244	-0.108512805864	0
27.625	0	0
27.5	0	0
27	0	0
26.984612185119	-0.111680714924	0
27.125	0	0
26.125	0	0
26	0	0
25.990349817319	-0.10847866492	0
28.125	0	0
28.625	0	0
28.5	0	0
30.625	0	0
29.625	0	0
29.5	0	0
29	0	0
28.983089608831	-0.107750428826	0
29.125	0	0
30.125	0	0
30.5	0	0
31.63125	0	0
31.5	0	0
31.494696987447	-0.123712578064	0
23.671261205816	-0.380102168636	0
31	0	0
31.125	0	0
30	0	0
29.980228243528	-0.115525062547	0
28	0	0
[...]
CELL_DATA 2263
SCALARS 1600.00_0.85 double 1
LOOKUP_TABLE default
11.134341514129 8.3029940699712 8.3859158015984 8.94431192678 8.4063270783732 8.7692965354935 8.8341289733485 10.283396043407 10.298553014425 10.536492403603 10.826425017386 10.0612041899 8.9344537034361 9.3520098335996 10.444259084844 10.557501666714 9.7616355756584 9.7281329609253 9.7295129594605 10.127891689097 10.761915699678 9.9203806130496 11.213884737985 9.6887560096269 9.5168964153027 10.113090061588 11.239103577188 10.236321942415 10.661248105213 11.430925289044 10.435354088711 11.446802491656 9.4494460894643 11.101624843746 10.763429689727 11.016215955616 10.757221669754 10.667393640308 10.215841435402 12.060358526263 11.516188395407 9.9162283118055 11.73766481582 10.905030274147 9.9510836850254 10.975556463253 11.014070190689 10.579599340154 10.18275369802 10.956561318327 10.109345565378 10.593448984769 11.144799190225 11.764508066926 11.132349524048 11.838317521295 10.952420901898 10.546336383986 11.249113868498 10.69561258099 11.201712724496 12.205890375354 10.957553642584 11.0560624353 11.159088154912 8.6509942563884 8.3745764559676 7.8386288524586 8.7444668330631 9.0068185076357 10.82723679308 10.78485660012 10.212386600483 10.403452525909 8.922845082182 8.2039780526292 9.491764978442 10.032948115846 9.8052498386213 10.371036417886 9.8043734926428 10.593983466986 10.715580232825 10.5256617152 11.170076459403 10.43861350003 9.651050470042 10.693935148423 11.07877244378 10.677140618269 10.751486114988 10.174043267805 10.680394220084 8.9421373726008 11.409834337277 11.468854465589 10.797636721237 11.247541974715 11.041035709507 11.147054092548 12.048329391111 10.648901696192 10.054589410063 12.002549739021 11.442318089107 11.762834981377 10.651613352386 10.740374410838 10.541033445401 11.345791937117 10.706605145488 10.524883264895 10.629595014558 10.19184692443 10.977685540143 11.168235367859 11.203949893189 11.679178778188 11.366524378023 11.038256446255 11.264972732862 11.364492656379 11.177911061091 11.822188883479 11.62130865759 11.147755181465 10.718073411295 10.583866703253 11.771761466733 11.276780870905 11.343748936985 9.9656979957057 9.9779867166869 11.572774472384 12.212742979355 9.9614859399911 9.9413128987784 10.438604311613 10.504361943305 9.9681458754085 9.87236949625 10.256391189851 10.254282451099 12.305801375519 12.521434712604 9.9699238611504 10.663066199049 10.653562752658 10.605695142021 11.374544956047 10.414667189644 11.585710379696 10.040257526997 8.0500420771474 9.5959959439977 9.9016539642712 10.042108236742 10.561963383566 10.431431113415 10.79667929146 10.643009118574 10.138568841996 9.3570220607342 11.362042541965 10.790313454528 8.2619168477376 10.682906610028 7.5085290106281 10.114428847325 9.4190949244994 10.667363775962 9.7228090072228 9.6003420211214 10.191507870421 10.638798290434 9.6062549761439 9.8928884677602 10.472893296882 10.557599391304 10.581122356562 10.862369067695 9.6486301589379 9.6516113694688 8.736342978284 8.7424608403597 8.6503856141486 8.1355898961789 8.4662843871027 8.237847520119 10.309265866699 10.668724251556 9.8391968507028 9.3885835491598 8.3950050317956 11.546804994825 11.389365306176 10.910762413855 11.772171956643 11.642547365369 12.169343700964 10.385730338047 10.480816119991 10.456963524105 10.091718769512 10.09670289287 10.378859574559 10.019837690608 10.297317618496 11.793268830376 10.050121541159 10.606273755716 11.429195765109 12.315214334596 11.617080417793 11.44569035066 9.5645210797919 11.23997739031 10.269438629994 10.184680246056 10.767937412226 11.760998218573 10.715793114201 10.653621239284 10.783855158216 9.9185184651898 10.668780724772 10.267879460282 11.17701154663 11.279688685843 10.831378495757 8.6184761867769 9.4658034811332 9.9606005205944 9.6521039922367 9.9025149870551 9.8934470038818 10.784052741787 10.974369595756 10.847511096438 10.749041072839 8.7979523264349 10.257215279913 10.770537123872 9.7873995442509 8.3042344990784 8.7999019730145 9.8773998365282 8.298312239249 9.5333070132723 8.7114718963485 10.731941383254 8.9420827178276 8.3005478653051 10.466326697597 10.49740929874 9.6308836292267 10.570882968599 8.0764362870621 11.661233551124 8.2654668342998 9.9624304112003 8.757684352078 8.8818408848512 9.5093643560809 10.542002063889 10.517740388097 10.541680170541 10.967450586042 8.9579340129855 9.0977724914096 9.7330381804602 9.5663423367494 10.439243220111 10.807801308697 9.8138661319817 10.048987814509 10.292957407131 10.713160437591 9.286202595086 9.9214759619692 8.2115995169907 10.307013306798 10.031508734473 10.897090627507 10.639881621026 10.771783897219 10.606071103896 10.316653143027 11.456588664503 11.189438995036 11.040496952409 10.94246564481 11.216460441988 10.756135839871 11.004383847724 11.929156737861 12.119865988973 11.577252348371 12.025063286268 10.348040240744 10.276412973843 11.253038858452 10.869155234132 10.521191627295 11.047745663985 10.376945063551 10.411374790806 10.946059609194 10.860342214591 11.702134016255 11.708827315177 11.119845595132 11.339360419477 11.342769745554 11.457943737075 11.175069988443 11.357685802115 11.2764853493 11.223412081533 10.990083630511 11.447848726168 8.2569740150888 11.743673709417 11.544628211223 11.415679281759 11.538844189902 10.370627941444 10.279824187542 11.860721447551 11.9060713362 10.256053261748 10.071294215558 10.46771509822 10.728052280425 10.005426225879 10.241979509498 10.377339019277 10.409555479942 11.971991203543 12.228903916939 10.356345805585 10.368078345634 10.940902183902 10.837589355251 11.543239139742 11.093557758388 11.449386241115 11.124547924559 9.7267606878894 9.7928856445919 10.421167331733 10.552230631654 10.707017748161 10.869614509604 10.703835320001 11.26437424974 11.304111516233 10.549088579211 10.698725451036 11.062432520618 10.06873363412 10.927355917757 9.6355841308306 9.7855228586727 10.781687853517 10.408530009826 9.7485321660658 10.079666262291 10.544649143307 10.751052484589 10.615491224125 11.000424677326 9.958460389098 9.4478002467306 8.833888290841 8.7902229698247 8.5313864357436 8.09406504285 8.6037169897888 8.5610246425891 10.701858692088 10.611407993844 9.873527619062 9.9800720187499 9.3893924295528 9.997610081574 7.8990056893655 8.5857224191502 8.1288866647485 8.6624228446691 8.2364315840079 8.4181310042804 8.9801167321718 9.3453513801726 10.945055800917 9.3230042072038 8.8649480602048 9.2688887512448 8.6980599511143 8.5958199182372 8.9150356841541 10.679532138214 9.0636341276116 10.215193923631 9.7265368892759 9.3970897393099 10.192683403161 9.9750740366274 9.9147810763892 8.2957240624824 10.13172632078 11.534764351325 10.398371127042 5.8595865725319 9.8248522001348 10.323494526452 10.292054951514 10.2072320113 11.077983469741 11.136361827906 10.998665378397 10.676230218294 10.141522123903 10.619114227001 9.9108671729414 10.522375096144 11.868677514375 10.093361149228 10.426099392716 10.73678499035 10.682992696208 10.891789949284 10.968970784506 9.6375882115116 10.13953532165 10.320390255756 10.953664480987 10.643778186244 11.281898907874 10.428719746516 11.269341900787 10.989947143861 11.165177845871 11.612318517341 10.975436068598 10.754699761896 10.221110977961 10.733618056676 11.415929189368 11.744790619147 9.6016332701584 10.651080005943 10.523584078511 11.325611345469 11.33545271368 11.150525753734 12.402997891169 9.4598059998884 11.140865401853 11.130161325666 10.269605810437 9.3174866694938 9.9143596085293 9.9908824395669 10.148439164916 9.8881243510431 10.844604948392 10.206214893648 10.730059084154 9.9453338367784 9.6656831035757 11.346961415294 11.004982921061 11.66241950455 9.7531969321237 11.687088206623 10.38873483276 9.8335579763405 10.182474027406 10.561483564343 10.763202908923 10.761229040776 10.450805924487 10.257422241181 10.044454938515 10.392950989925 10.429718090741 11.18387204255 9.2445103605066 9.485180423071 9.2916617658896 8.3916514585164 9.4941690999966 9.66538987411 9.7966404933605 10.590620531051 8.883956793889 9.5640747609067 11.004740361658 9.042722710059 9.576588635739 9.7583124251229 10.73121423052 8.0748154979562 8.2257647241317 8.0273598250606 8.5716114711762 7.7383495377133 9.9125166301885 9.3046676281909 10.339287942078 10.419690417098 10.121627468679 9.2990468505178 10.594513769034 9.3902858088732 7.9087018991151 8.0413848641619 7.9661931317036 7.2777149918945 8.4307301462048 8.5664425384064 8.9047717066525 9.087718793655 10.020898832172 10.35687516114 10.328375069321 10.91823823877 8.7976294407305 9.0418789363429 9.2468275190983 9.4034830475545 10.09256634769 10.680551566982 9.5097681561436 9.8326771607656 8.1284735498702 10.360598736924 9.5216800986584 9.9736820493608 7.5132373586811 9.6669481643305 9.7289821784399 11.033869458912 9.3065986560821 10.747565525038 9.9915675261902 10.374111713166 10.893415824252 11.492914680419 10.935283757556 11.122247546968 9.9736434045033 11.054873067009 10.521935635856 10.768973888183 11.588366194215 12.169866454865 11.262345393527 11.876545565661 10.058670658694 10.067772646489 10.603150678801 10.904240802183 10.444818616106 10.8326891882 9.989849157059 10.243822079398 10.599895424132 10.65831536756 11.319068017738 11.766415298429 10.948020923858 11.124560602143 10.946792225101 11.29213889469 10.969661409866 11.32576878177 10.866361709138 11.075104933765 9.6433361375721 11.217952410229 11.313057762159 11.54136233405 10.951491579365 11.347302778451 10.077878241048 10.130706258407 11.525143423477 12.209468374908 9.790757199862 9.9846395469482 10.167475021005 10.575943669971 9.7413103613974 10.037841839822 10.158070304657 10.333848368797 11.48489308136 12.379898456526 10.040313709738 10.130828178116 10.483003152094 10.778246238893 10.713734002713 11.190121850443 9.2546179149196 11.398955889134 7.9376905958304 9.6970540188076 9.3614843243089 10.192918434028 10.277822934544 10.551110792567 10.448681964986 10.897284591778 7.5604000932656 10.18776232916 9.9736987387331 11.033583007726 8.9617986795057 10.665513496935 9.6605073026043 9.6011953743932 8.5544117051198 10.534004522492 9.4851496955966 9.7980315864326 10.235963999626 10.616158020402 10.390561864282 10.971916963702 9.3286506892381 9.5827102817398 8.5591140618749 8.7660641762832 8.0626248792366 8.0412475785528 8.3215890610361 8.3782698435816 10.258074382522 10.666359613085 9.5742279850796 9.919107935176 8.8484371320976 9.5129546998363 8.1058394671855 9.7238255991804 7.9298141618242 10.158092508046 9.2954319524836 9.4582346273541 8.2877918742542 9.1214128036418 7.6686065354647 8.1964719076586 9.2135494739924 10.192658770108 9.1392140597093 8.6628314448378 8.8036882584885 8.8313566012135 10.466508044775 10.287549083134 9.20950953167 10.672894777993 9.2795730359465 11.288581783999 8.3453832162152 10.615947078647 10.764222294265 10.986133890214 8.302034511857 9.2600806986222 9.1320656240455 10.935973270827 11.405352065974 10.909990652922 9.196503379445 10.399139983946 9.8494756168966 11.342670416563 10.595213551637 10.335439587287 9.9221533881089 10.154949700569 9.0649038527549 8.3144097139415 8.9155324510079 10.807287875261 9.719802845941 10.90524743691 8.6761153580374 9.5529363194758 9.4851065488553 11.139692150048 9.6218327037262 10.761042430312 10.516370602816 10.380784424152 9.4313059056347 10.273656113208 8.9722496918462 10.156443790797 9.5138100424135 10.465634175935 9.3762385085896 9.8204221670575 9.8577452646722 10.074369704816 9.8160301217124 10.266142484115 9.8949195542586 9.8059344140393 9.3994469247114 10.352504720094 8.4338991304181 10.351773550915 9.3646757776529 11.044924169151 8.2717091705356 9.1318888129881 9.1953228596041 9.7952084160421 8.8279973917535 10.372118315239 9.5660913595751 10.339092509168 8.7358573761045 9.9382719153156 10.583916886043 7.7537870845891 9.6785829463507 5.4413337686222 8.2832917588696 7.7268563616092 7.2761292939618 9.3154913953019 7.783117712199 9.5867093123034 8.4460593540503 9.5527133846854 7.2477401334113 10.221738166409 10.326730510363 9.5085182022945 9.8562774061013 9.4599926595554 10.46891595745 9.9560498196587 9.9240211932571 9.171544423204 8.8781252960492 10.341784793458 9.5601029518906 8.8742628769951 8.8825297406764 9.2985899892786 7.9172766955438 8.517261517199 7.4233971225199 8.0601897696973 6.9546447044885 7.3863036992523 7.438070310463 8.2403356071632 8.7175862284757 9.577404976585 9.3721009013328 10.525851305737 8.1049103511654 8.4133823153157 7.3886336893031 7.5415043294078 9.5291409986393 8.3474022172786 7.1323546629523 7.4732732690149 8.0764191757802 8.2344781167518 7.6534295928462 7.8591714090495 5.9969768264177 7.6282776804765 7.2992168965514 9.2741503278886 7.3645488285592 8.4516757937238 8.3183782326072 8.2477149284475 7.7272881641057 7.5890161790254 7.2717088716255 8.8472463994937 10.752728700495 8.0127791537068 8.0276891657218 9.1309935814813 8.7847276881678 9.8965778641822 8.7295935345363 8.2771646666701 10.831510287311 5.242961319937 9.3828045511256 8.0630768753508 9.3394170505429 8.195769635819 8.1175757868964 7.5073801999425 8.291978071664 9.5232298083188 9.2665442449769 9.216747958848 7.438232559365 10.252524411931 9.2300609770257 10.00630572265 9.382392093064 10.606458241106 9.5556810460254 9.917198191326 9.9247523240533 9.4668733399656 8.7422701082006 9.9648491494972 8.7372898989483 10.494711154072 10.736744464123 10.268382885145 9.7001277580085 10.244935938797 9.4867547948425 10.232016085196 9.3927378499559 8.0842448361052 8.7081208387613 10.343748513845 9.3356286214126 8.560141964864 7.9489023685351 5.2747803772358 8.0462255774271 7.0495769773539 10.225535578645 9.0480695824075 10.295338353625 9.9417847499567 9.3882008626591 10.442926700951 8.7801025199757 9.6747011308891 9.3743802802176 9.114327560988 8.7270411399973 9.3282303955272 8.3450921464028 9.7286066824146 8.9070619648024 8.5470959257389 7.5224637993667 9.8231432854875 9.2511632911781 10.09938493645 8.6912472481801 9.4367768928772 8.8110726668019 9.7375074565619 9.1271817888437 8.5899068942675 10.350699667933 9.5570363807867 7.7041869240155 5.9060558406874 8.255736302511 9.5911249528805 8.6275649294419 7.600763081663 7.8418345229614 8.4698365156415 10.774455093629 9.6091284111586 5.900677057113 8.4630054455633 8.5673116278384 5.8949557381827 8.7538542688233 9.4280427184488 5.7168121397934 8.860043962709 8.6408277396743 8.0737218361166 7.164478845793 8.0842394943238 7.4284324228633 8.8521133344424 7.7034921825444 9.5338317190304 8.5417831477809 7.9642171042734 6.9661243852496 9.5333963889289 10.240945375362 10.821703440267 8.3149345857548 7.7791403773701 6.8190557246645 9.4432123908924 5.6209882537375 8.097112229313 9.9041612439647 7.3511176434587 5.9947238255242 7.0370611371775 4.6304762020599 5.7267999257459 8.943504890588 7.1540347056533 9.3389087966006 7.4707624009492 6.4081701308106 6.7082505932124 10.097105956484 8.4430715209166 9.0385988585967 9.7137573585294 8.3249166781766 7.3431508034926 10.393192377086 7.4700545168828 5.4347009337063 5.7345510160483 5.9629285754082 8.06560080996 6.283684053347 9.0890355341284 9.1606165200674 9.3752748703179 9.1220716786166 9.6501915053512 8.5036375069 5.8133198491099 8.2822432993462 8.7791877402255 5.4889820353528 9.4850755722791 9.1564755130963 7.0346409912267 9.4638485009395 6.4121068810435 8.7489830365938 5.8943615834692 9.1249556131574 6.4815690211983 8.460595505925 5.6737001515842 8.2567278660795 5.9073768942709 9.5026871210957 4.9957655588799 8.5749622357985 8.4696264321075 5.4949431063321 3.3868088586208 6.8241065663328 8.0514222765081 7.1687299064623 6.6217427815951 8.5167249927782 7.3226599970205 9.3219171819167 6.9582332879942 6.2438048007104 8.728025931418 6.9596390413126 8.3495854285715 5.9911530762063 6.8793854056519 7.8718747601621 6.2993392914332 9.1466182477511 6.6967384423999 8.3621151229925 8.7879774817969 7.2950894084121 6.240382591981 7.7096310353954 5.3206818436459 8.5647416730241 8.8879249689939 7.8855674416926 9.4990528653787 8.6033065190737 4.5441905559328 8.8689573692576 5.9085204698085 7.8615738110918 5.877035093766 8.5130266696311 5.8229411034303 7.7202933176363 8.4198660661004 5.8588068951939 7.9705425893364 8.6023396226882 8.1712608728046 8.0258900953589 7.4282412643361 6.7050900287354 6.8888462551024 5.6791138887174 6.411485984806 8.3569120426232 6.2104553112785 7.4742306839327 4.2616005097353 8.7206443085175 5.6801042429705 7.9468265595006 9.4701009290693 9.7625092326249 8.0492488521144 10.325798226699 7.3986418206918 8.3005146937506 7.6885503119495 6.5840192349952 5.2869643579166 7.69512149328 5.6817771857176 5.0988060443543 6.1909279328338 5.4868215427917 7.5199326200335 5.887837315292 5.5811596293376 3.8606105762678 6.9296464414513 6.6215914980971 7.3647888913819 6.9935246384549 6.3696919897231 4.6090763524421 5.7340655514621 7.0614181933582 6.8737688038326 6.9503822655329 5.4838258383681 7.3037501488189 6.8223606330376 6.7372790929029 8.3096587427494 5.8429874244784 6.8746644079832 6.1713497878829 6.7079682043161 6.8824481760628 5.8910257798855 8.294395362017 9.1560208171049 8.4056830609718 7.2949556347233 5.6347019615031 7.1385434589471 6.9579842525795 8.6906232131014 6.2279079402905 5.4337808383547 8.3419964305596 6.2588632954809 5.1497400547534 6.1590952174021 7.0849746883904 5.3293726537906 5.5380595597248 6.1827791988404 5.8265109160181 4.4618462582019 5.4924428892739 4.9536883465431 5.252537750458 4.4322179857952 4.3854777549592 6.1409697196868 5.0225447432152 3.9932862450074 3.9460470357273 3.2325255383046 3.7874095470873 4.1170188784278 6.978746320798 7.0483932689485 6.4652538089989 6.6580869587773 10.573890967667 5.4063697745512 6.3707538114294 5.9107215546923 8.0876634718056 8.9249379257286 5.4666788144725 5.8676237624513 6.6719995567049 8.2896488978472 6.2049447377713 6.0523883414329 8.0425855743056 6.4551552442789 4.9497968149149 5.4611396755176 5.7618447122839 5.2527114120161 4.3713069953072 5.3438421380879 4.587904194766 5.3580452366679 6.0469440624543 6.3804552722226 4.9416914404329 5.4814873903215 6.8548256944019 6.1255787024759 5.0385546550671 5.4528424818552 5.0569422544666 6.5783473494941 5.3614636731048 3.6524911499695 6.0359738245274 5.0564960942275 4.2200466290212 4.8075570030457 5.697589446752 4.4203355222126 4.2973769192303 6.149436811182 6.6722097296034 6.6550881273569 4.3015673991546 3.3732715390321 4.9168220235347 6.0451174752717 6.0485549841733 6.058798863945 6.461422294986 5.2882215416085 5.5020613834423 4.7499256773789 4.4796780988125 3.9500013572012 4.4539456551269 5.4536386276318 3.8942758417659 3.7250214236149 4.8526104395927 4.02178838414 4.4082353366861 4.7367658574275 4.5401639225287 5.4256395166906 5.0018435567901 5.9148619772108 5.8953399988269 4.7219446602946 5.1112003995336 5.704738549342 4.6257969541271 3.3603991963143 6.3629549605822 6.3746541346397 7.0852668346293 4.3153994992081 6.0964343651579 5.9358517876636 5.9185410208867 5.4463542089518 4.6180865232095 4.1506229752999 5.5420449835256 4.2330540755443 6.7588569658517 7.4000618050969 4.7102585715881 5.4165804106836 4.1990573949563 5.8900720798509 6.7230127177769 6.4020558289332 4.4105078802507 4.935592798486 3.1585744146707 4.7141247792251 4.0324866300778 6.5105746594963 5.0139512752481 5.5056614033188 4.5544287338207 3.9574710651231 5.2982036925799 4.4738165561364 5.4161109515008 3.8152195306069 3.9333857181148 6.0174724870251 4.8118678296322 4.183705562841 5.4798360389062 4.9173946724795 5.8999101948465 3.8951306633419 4.9982199221569 4.446028005381 3.9677852692884 5.2617078149024 4.9666336176357 6.4051646095499 5.1630287321041 5.851331869098 5.8048938081373 6.6856903547386 6.9182222059673 7.1333458029368 5.0199011340836 6.1787283195645 5.5773470838531 4.4682999905007 3.8777002835652 4.6056232367311 4.1519581111453 4.7777376647087 4.7736478846771 3.8267357551797 5.520548167689 6.1091458482041 3.4734823030153 4.1332870493172 5.5314745224796 3.971686572831 5.4384298689736 4.2860532235247 4.2950747402394 3.3538252794663 4.7470910635437 3.3776863715454 3.5022194102087 4.4588326615611 3.9656798603014 4.6158340192797 5.5128567806361 4.6483325683179 3.5513579470747 3.8848079556301 4.2837556217207 5.1427836604239 6.0232125