# vtk DataFile Version 3.0
d-2__ created by libgimli-v1.0.12
ASCII
DATASET UNSTRUCTURED_GRID
POINTS 1303 double
5.625	0	0
5.511811217919	-0.146388704457	0
5.676386535709	-0.13519637448	0
0.25	0	0
0.175228502521	-0.179050409113	0
0.326009290428	-0.144330725415	0
0.375	0	0
0.990207725992	-0.114957291708	0
0.841075314552	-0.137634199948	0
0.926498288371	-0.349340723189	0
-0.001071200562	-0.386156929004	0
-0.003317641763	-0.130454088023	0
-0.192720422374	-0.216308252768	0
1.25	0	0
1.175215748534	-0.200562384647	0
1.341115762259	-0.128605193971	0
1.375	0	0
2.25	0	0
2.168494514827	-0.19848886597	0
2.338304607341	-0.128945294536	0
2.375	0	0
1.911268305082	-0.334701951691	0
1.986191885908	-0.110806668109	0
1.838390258011	-0.128853462534	0
1.75	0	0
1.670105949089	-0.197137117999	0
2.986685504441	-0.10889534818	0
2.838723720416	-0.127406828384	0
2.912854264006	-0.329775839393	0
0.75	0	0
0.664572693147	-0.222613872306	0
3.25	0	0
3.168798596028	-0.193682232199	0
3.337828500197	-0.125181208794	0
2.875	0	0
2.75	0	0
4.25	0	0
4.161099470995	-0.193412132741	0
4.332718836325	-0.127723897736	0
3.83511440706	-0.12403687807	0
3.875	0	0
3.75	0	0
3.901908238995	-0.321557035295	0
3.983050435256	-0.106770030737	0
3.665527023987	-0.190866765849	0
5.25	0	0
5.164693411436	-0.21656556845	0
5.338419985376	-0.147288917438	0
4.834321952324	-0.135810575609	0
4.875	0	0
4.75	0	0
6.25	0	0
6.178399669611	-0.137425451145	0
6.356205370496	-0.193853696818	0
5.817814980918	-0.161175429964	0
5.875	0	0
5.75	0	0
6.611939839541	-0.314381537706	0
6.522886280605	-0.104721203126	0
6.75	0	0
6.669178832877	-0.119404962711	0
6.836073690852	-0.177498311423	0
5.39059629209	-0.37339102075	0
4.660917359886	-0.204007052252	0
4.902096977384	-0.356327271651	0
14.897042426984	-0.319128540459	0
14.98121339776	-0.105010975498	0
14.832720105416	-0.123004000492	0
2.669265824618	-0.196872625129	0
7.656019919505	-0.144451020927	0
7.75	0	0
7.625	0	0
6.625	0	0
8.75	0	0
8.672937461928	-0.164309120831	0
8.834289374889	-0.109279841483	0
8.206809119751	-0.294811800109	0
8.187056112549	-0.110869448227	0
8.024316200302	-0.129362764133	0
7.157390904024	-0.111206354394	0
7.25	0	0
7.125	0	0
8.25	0	0
8.125	0	0
9.75	0	0
9.651145885459	-0.185384966231	0
9.827054067621	-0.122428024454	0
9.381816956327	-0.305807769915	0
9.476753337472	-0.101567493772	0
9.327490061855	-0.116748040282	0
10.75	0	0
10.655660803951	-0.196164841752	0
10.830485405183	-0.127989131147	0
10.386748323888	-0.329675548046	0
10.478464938155	-0.108955040137	0
10.328560245085	-0.126395562242	0
9.25	0	0
9.375	0	0
10.25	0	0
10.15270392044	-0.192469144253	0
8.328856990144	-0.128933011689	0
8.375	0	0
9.153857570119	-0.175508527296	0
11.75	0	0
11.660624577581	-0.201812344528	0
11.833823570609	-0.131890823957	0
11.395399221028	-0.337817920558	0
11.481219500696	-0.111845889235	0
11.331881500183	-0.129806070652	0
12.75	0	0
12.669299873111	-0.199190799603	0
12.839534650452	-0.128328673855	0
12.40897914742	-0.340185307353	0
12.485654611126	-0.112072117633	0
12.336727606385	-0.131188239877	0
11.875	0	0
12.25	0	0
12.164627546098	-0.202605127067	0
13.75	0	0
13.669268468008	-0.186168180444	0
13.837322273199	-0.120178339978	0
13.416957459915	-0.319650485848	0
13.487510959619	-0.105281058988	0
13.34010202956	-0.123833443479	0
14.75	0	0
14.66080663422	-0.189613659871	0
14.399926333663	-0.319306441484	0
14.4823067449	-0.105599641009	0
14.334114343934	-0.12250571155	0
14.875	0	0
15.25	0	0
15.158227025815	-0.185762723401	0
15.330441202311	-0.11956675178	0
13.875	0	0
14.25	0	0
14.163960939829	-0.186365139356	0
12.875	0	0
13.25	0	0
13.171786689458	-0.193064330135	0
10.875	0	0
11.25	0	0
11.158129238503	-0.198418008741	0
7.31587636932	-0.171642077952	0
15.3902841013	-0.308450173235	0
15.478958243586	-0.102394874489	0
-0.125	0	0
0.125	0	0
0	0	0
-1	0	0
-0.706889652808	-0.331752981492	0
-0.5	0	0
1.125	0	0
1	0	0
1.625	0	0
2.125	0	0
2	0	0
1.5	0	0
1.488007132967	-0.109900770852	0
0.5	0	0
0.474245721096	-0.130043839003	0
0.625	0	0
3.125	0	0
3	0	0
3.625	0	0
4.125	0	0
4	0	0
3.5	0	0
3.485533411273	-0.107014956798	0
5.67736414417	-0.368119689468	0
5.125	0	0
5	0	0
4.98353533542	-0.118243061674	0
6.125	0	0
6	0	0
6.009467825362	-0.139471566496	0
6.5	0	0
4.625	0	0
5.5	0	0
4.5	0	0
4.481603306259	-0.111052305129	0
2.5	0	0
2.486482293556	-0.110456056597	0
2.625	0	0
7.828740664136	-0.157959666613	0
7.5	0	0
7.497789303332	-0.098817221798	0
8.625	0	0
8.5	0	0
8.493725508365	-0.094448160765	0
8	0	0
10.625	0	0
9.625	0	0
9.5	0	0
9.125	0	0
10.5	0	0
10	0	0
9.976983002093	-0.106037154081	0
10.125	0	0
9	0	0
8.980258705317	-0.095443922293	0
12.625	0	0
11.625	0	0
11.5	0	0
13.625	0	0
12.5	0	0
12	0	0
11.983083448534	-0.113269018621	0
12.125	0	0
15.125	0	0
13.5	0	0
13.125	0	0
14.625	0	0
14.5	0	0
15	0	0
11.125	0	0
14	0	0
13.984735949845	-0.103165953766	0
14.125	0	0
13	0	0
12.987740386932	-0.109238757727	0
11	0	0
10.980033547654	-0.110118532971	0
7	0	0
7.012790729926	-0.096165366155	0
15.625	0	0
15.653391866104	-0.184257106926	0
15.75	0	0
16.25	0	0
16.151956269841	-0.190746813766	0
16.328162175541	-0.125534698515	0
15.827345422636	-0.12109528269	0
15.881623705918	-0.315197408181	0
15.9768075603	-0.104841845177	0
17.25	0	0
17.155473725888	-0.187015736188	0
17.328334720487	-0.12053442359	0
17.375	0	0
16.97978281674	-0.105790715925	0
16.830585534618	-0.124270763258	0
16.892220832712	-0.321708894118	0
16.75	0	0
16.655725821363	-0.19281499559	0
18.25	0	0
18.144056513649	-0.199584109463	0
18.322695877645	-0.133173012767	0
18.375	0	0
19.25	0	0
19.156955168382	-0.212194778097	0
19.332395147696	-0.137501625504	0
19.375	0	0
18.978107771567	-0.118463258117	0
18.827251646435	-0.137822523984	0
18.884674261801	-0.359498065923	0
18.75	0	0
18.648603260315	-0.210400354993	0
17.973004229039	-0.108213471414	0
17.823362138939	-0.124125311933	0
17.87020700187	-0.324156104502	0
17.75	0	0
17.64837652944	-0.187413016584	0
20.25	0	0
20.167288289523	-0.206556633625	0
20.33799343326	-0.133667464393	0
20.375	0	0
21.25	0	0
21.172020853715	-0.201327641466	0
21.340729826518	-0.130206344264	0
20.875	0	0
20.75	0	0
20.839555732676	-0.132066213667	0
20.987710400762	-0.112937783384	0
20.915843633601	-0.342386775443	0
20.669904108595	-0.203936882105	0
22.25	0	0
22.168893714495	-0.194483818359	0
22.337089427477	-0.126591453251	0
21.875	0	0
21.75	0	0
21.840184239699	-0.127666317168	0
23.25	0	0
23.162361450448	-0.215073727418	0
23.335945395372	-0.148199257458	0
22.875	0	0
22.75	0	0
22.83504078106	-0.133126573368	0
27.412614995451	-0.337768305098	0
27.406417478875	-0.760610856776	0
27.663031754041	-0.476449210851	0
23.674319496044	-0.139602731619	0
23.75	0	0
23.625	0	0
22.902876337082	-0.348446434986	0
22.664415839639	-0.19979598046	0
21.987454968006	-0.109075483352	0
21.916658702332	-0.330379709848	0
21.67241042914	-0.19774510361	0
19.984830323221	-0.115851903278	0
19.835879034474	-0.135573032779	0
19.906686139011	-0.351521653308	0
19.75	0	0
19.663378765328	-0.209646647928	0
24.75	0	0
24.672305039303	-0.121865624882	0
24.84054616259	-0.178479133746	0
24.25	0	0
24.125	0	0
24.179559510218	-0.145425217914	0
25.656694723316	-0.141492417978	0
25.75	0	0
25.625	0	0
25.25	0	0
25.125	0	0
25.159224348757	-0.109007087058	0
22.647257188685	-0.476376729768	0
22.872248033711	-0.780455516934	0
25.317652966423	-0.167196322239	0
31.908525182248	-0.237434634112	0
32.248547795208	-0.367887731521	0
32.025	0	0
26.398062594932	-0.327144710524	0
26.335089901602	-0.124890632532	0
26.169730315141	-0.188549564961	0
26.75	0	0
26.662500836065	-0.197477656933	0
26.835401004001	-0.129534360312	0
26.375	0	0
26.25	0	0
27.486869476066	-0.111474770432	0
27.338367230812	-0.130187170762	0
23.816158307302	-0.168335740772	0
23.875	0	0
24.625	0	0
27.75	0	0
27.67023663024	-0.198727549038	0
27.839431305592	-0.128541986375	0
27.375	0	0
27.25	0	0
28.75	0	0
28.666013303123	-0.192953151514	0
28.835335299513	-0.125393524551	0
28.875	0	0
28.41074998604	-0.32692743598	0
28.485854239984	-0.108071323096	0
28.338261561589	-0.126341817439	0
28.25	0	0
28.169650699531	-0.195402875109	0
29.75	0	0
29.656991685033	-0.201213204108	0
29.830700495316	-0.13323291855	0
29.875	0	0
30.75	0	0
30.665605116896	-0.213760177502	0
30.837855425721	-0.139272404211	0
30.875	0	0
30.987248292653	-0.119871959545	0
30.911614165903	-0.362389547989	0
31.25	0	0
31.174363802618	-0.217041176186	0
31.346460135447	-0.143418487957	0
30.400599561582	-0.360265197586	0
30.483280501431	-0.118794220148	0
30.3336351656	-0.137924489201	0
30.25	0	0
30.159375273254	-0.21004086356	0
29.392934647931	-0.331414044449	0
29.48031118177	-0.110263057575	0
29.331777210358	-0.127344913482	0
29.25	0	0
29.160548153072	-0.194064979946	0
27.167334579456	-0.200440763045	0
24.359650796728	-0.20304719459	0
-0.25	0	0
-0.404335947278	-0.221464959739	0
16.125	0	0
16	0	0
17.125	0	0
17	0	0
16.5	0	0
16.478267427857	-0.108008273171	0
16.625	0	0
18.125	0	0
18	0	0
19.125	0	0
19	0	0
18.5	0	0
18.473681471998	-0.115768873419	0
18.625	0	0
17.5	0	0
17.47687846862	-0.103462148239	0
17.625	0	0
20.125	0	0
20	0	0
21.125	0	0
21	0	0
20.5	0	0
20.486446843971	-0.114298370976	0
20.625	0	0
22.125	0	0
22	0	0
23.125	0	0
23	0	0
22.983281399654	-0.116385827149	0
23.5	0	0
23.509214189908	-0.149359691049	0
22.625	0	0
22.5	0	0
22.48467632496	-0.1093719097	0
21.5	0	0
21.488472844532	-0.111208801785	0
21.625	0	0
19.5	0	0
19.482219828947	-0.117572233456	0
19.625	0	0
24.5	0	0
24.525433875838	-0.108080714825	0
25.824234283709	-0.149177038136	0
25.5	0	0
25.498573523516	-0.096586408813	0
25	0	0
25.014769107289	-0.095147895568	0
21.919931345447	-0.741308582321	0
22.160361550711	-0.463896476278	0
26.625	0	0
26.5	0	0
26.482631880244	-0.108512805864	0
27.625	0	0
27.5	0	0
27	0	0
26.984612185119	-0.111680714924	0
27.125	0	0
26.125	0	0
26	0	0
25.990349817319	-0.10847866492	0
28.125	0	0
28.625	0	0
28.5	0	0
30.625	0	0
29.625	0	0
29.5	0	0
29	0	0
28.983089608831	-0.107750428826	0
29.125	0	0
30.125	0	0
30.5	0	0
31.63125	0	0
31.5	0	0
31.494696987447	-0.123712578064	0
23.671261205816	-0.380102168636	0
31	0	0
31.125	0	0
30	0	0
29.980228243528	-0.115525062547	0
28	0	0
[...]
CELL_DATA 2263
SCALARS 1600.00_1.00 double 1
LOOKUP_TABLE default
11.843423656676 8.5228096526199 8.5993404108102 9.2738560553081 8.7730864057766 9.1488996067901 9.2399983690771 11.008561002926 11.030662314397 11.230576033079 11.489015599938 10.800569453798 9.2819766709736 9.8642775264274 11.3140514019 11.556609554726 10.316095911928 10.341391002685 10.256033370631 10.659013678573 11.170768580264 10.506883635843 11.951118851672 10.21755511327 9.9146195928023 10.676124542742 11.964161603648 10.638299085221 11.068957496299 12.400120285876 11.305028078084 12.167336147463 9.8528285953441 12.079431653802 11.405604401245 11.80123045101 11.369462457183 11.159915998013 10.572689079781 12.682872662138 12.351222649254 10.187314473764 12.700514334922 11.537765501167 10.244034197094 12.239809562226 11.619085916779 10.898138059509 10.550998164539 12.239597266639 10.441884964412 11.222176092191 12.177399344927 13.00098772598 11.998913911641 13.086215224722 11.533081577869 11.15555230362 12.096436962426 11.042174453356 12.381893148624 12.817507072554 11.393087866275 11.853028477393 11.776637700857 9.0752564346444 8.6840543293721 8.1984749707803 9.1214831138617 9.3794676092899 11.446912900218 11.555548540924 10.736938842758 11.148784334505 9.2621062823868 8.4258460519629 10.03514360695 10.710405930935 10.312127199197 11.198471680814 10.310406945401 11.592324123913 11.357592286434 11.00054778328 11.88638742472 11.081163353362 10.132044968087 11.140154423756 11.784819258353 11.313138370606 11.430500394357 10.678401580115 11.530927341281 9.3052602377891 12.122980333461 12.245964188881 11.415810328707 12.15561300388 11.709951673355 12.155099001057 12.696917158647 11.06800608896 10.386080816798 12.796620414094 12.225530004138 12.72167447098 11.227533871106 11.220230272951 10.81609738536 12.343995318267 11.360137827763 10.831379533384 11.282687765911 10.546008646767 11.571421083033 12.062635864836 12.360599865706 12.807332197474 12.169986189774 11.472743319711 12.095764277554 12.236804789901 12.043853470406 13.104908203844 12.152928064571 12.455035922656 11.388996555773 11.479389440498 12.373812755481 12.206005162157 12.049477155691 10.504175102744 10.536953355241 12.382010362122 13.238656208581 10.452780920956 10.420280124467 11.18627464721 11.270013335375 10.426377043641 10.249670529799 10.898408606055 10.903444235916 13.279258742751 13.527232896231 10.472219211297 11.267470443815 11.267029802251 11.203397341864 12.177867712836 10.890007706517 12.233658061095 10.827479207268 8.4078408440923 10.354776476666 10.577121720342 10.806029250903 11.10502691522 10.924891677154 11.489192327909 11.292081425818 10.698548536939 9.8038146417933 12.208053629798 11.543950770709 8.6529032180576 11.417428406562 7.6034026346655 10.82909989936 9.8807801440246 11.574321916774 10.086751707147 10.330558716235 10.746424435618 11.51807732801 10.096497561187 10.172338754105 10.971898365105 11.064458577444 11.736256983816 12.418039101777 10.016266375079 10.014244943437 9.329055492226 9.3278562376905 9.2346023111375 8.6979788755129 8.9484113782581 8.6378982141154 11.009274104042 11.502402162414 10.142323526688 9.8326504548842 8.8184892688951 12.416466029882 12.343463395114 11.577779895095 12.777002407222 12.258085455385 13.229953659273 10.996384010292 11.235364256062 11.090118078338 10.551400370936 10.611140756479 11.01119174944 10.541510753659 10.936392280694 12.658831007528 10.561102354734 11.201342437959 12.191729833435 13.28551294246 12.448111180348 12.174008566358 10.299407435099 11.971981242311 11.059466922837 10.960214875977 11.560594884405 12.410339446355 11.295644161324 11.258771236163 11.477049614109 10.30672200899 11.311930136591 10.82253291661 11.992407316682 12.110485247414 11.572322437636 8.9958661067897 9.9205868754927 10.558694913583 10.133482376666 10.337418543097 10.341910573527 11.690847333013 11.844320803765 12.393709847094 11.595702041552 9.4068563695849 10.833526599687 11.539341302578 10.17814439935 8.6910842906932 9.3814913832683 10.21154957092 8.6095550654504 10.204759148203 9.3806689112333 11.58314000567 9.3513440809027 8.9332328764334 11.548447123621 10.991826139527 10.183229559479 11.091898536461 8.4778345447397 12.28128551411 8.5291551587736 10.41682091216 9.0297660503109 9.2501834376881 9.9958752317737 11.295712071148 11.306071223729 11.108891738794 11.713959045422 9.3220807238601 9.4396753193291 10.330249890891 10.070918509363 11.346604889746 11.681629686977 10.31561668196 10.73813330587 10.784122295538 11.349692931257 9.6984792266918 10.455951902408 8.6600165104235 10.843251896251 10.583967533579 11.62131009177 11.177642627113 11.23935487637 11.471593164096 11.098877782328 12.17712624073 12.153349992806 11.835513411241 11.620354530795 11.990836030522 11.223356095079 11.614168922145 12.631654516102 12.709363085442 12.443913394701 12.963856731463 10.785464034412 10.611393426851 12.408037334319 11.870106878934 10.821097021233 11.642580535115 10.842389061144 10.751184638359 11.705709994339 11.565627253506 12.895554342991 12.758276668501 11.784301856513 11.963726952567 12.214145295019 12.398085953557 12.192155038021 12.474651177042 11.765470416057 11.878439493652 11.722227885296 12.277435703024 8.6705792470647 12.36241401571 12.277549997236 12.336167304598 12.486098328007 10.93391873385 10.904006939008 12.867700502706 12.796659276807 10.819777454231 10.552781332222 11.166708113848 11.474270868742 10.437287968632 10.723892026171 11.014071739724 11.083865554056 12.87713911935 13.154993923124 10.916388231367 10.917434454323 11.605334014565 11.468938150367 12.326534864756 11.896481547106 12.131181811703 11.870279421575 10.338583096549 10.450134616137 11.184352447294 11.348581097058 11.273468683993 11.439823292669 11.354982664297 12.045752183518 12.141484781704 11.2107672069 11.432100897762 11.879890453149 10.621063814286 11.699731441666 10.141772164883 10.2609923972 11.643667430269 11.206472507667 10.222126295192 10.7975268707 11.164334544692 11.400851129974 11.901405923418 12.308676345896 10.42898905759 9.8566224088181 9.4406769340561 9.4026474497752 9.1874242504411 8.4869252537231 9.0087757120449 9.0587723746791 11.520031708304 11.351856331463 10.278771641218 10.324315939617 9.9222436389868 10.521172231332 8.0451470087299 9.0245475170643 8.3138516091912 9.0553586349523 8.4782352734 8.6936190682882 9.3161075572319 9.9253970713182 11.638149536012 9.8238124939524 9.1901767483916 9.6866676627549 9.0194961983763 8.8747434770246 9.4225439300961 11.697209384806 9.6758500837287 10.766910578562 10.360193031454 9.8909670304694 10.733710339752 10.561577499085 10.444857188957 8.7028330957261 10.586037452917 12.2580462154 10.827473524615 6.118716732072 10.535620306923 11.137459270106 10.986645523441 10.926512808632 11.799013165793 12.10643699276 11.808526684685 11.174942365467 10.736956125937 11.278792961734 10.340046051545 11.102259543611 12.870008724238 10.738839314773 10.851495823029 11.303616827887 11.342909591114 11.732884449439 11.4016729589 10.029341044309 10.46279913574 11.044846397235 11.750647530493 11.554541862302 12.510219492222 11.177224986369 12.110060339485 11.574163642951 12.104019191718 12.234784652124 11.854759227354 11.471857900172 10.586735070267 11.278061086764 12.144015883908 12.341852361366 10.072033793652 11.29646943227 11.13443105533 12.258083766618 11.964968141995 11.993980134594 13.447802753957 9.9594357989691 11.92707562333 11.988964607594 10.935706588894 9.7766171133673 10.285717466892 10.599338007442 10.745399071173 10.375721134611 11.486922969101 10.801931235943 11.405409777442 10.442213317445 10.177300911555 12.159918645397 11.74572809351 12.502571268113 10.25381639559 12.345619019432 11.086653300682 10.350400019234 10.888825031378 11.272899029194 11.375972806719 11.472482280973 11.039322165811 10.804939352779 10.58991740026 11.062940429234 11.08717826106 11.994390305362 9.7555521479405 9.9467133884734 9.8341313309502 8.8206128879947 10.025551043016 10.164157821951 10.560482212906 11.295124250427 9.3096054396461 10.204024422519 12.637656852403 9.4667177086501 10.004614342729 10.390533502301 11.572284708584 8.5586498207239 8.6335479957993 8.5457749247537 9.110736413354 7.8489610707911 10.472584541767 9.7045719757541 11.171320661807 11.049443672504 10.835848225228 9.7906485085763 11.215730021866 9.8712169638186 8.2678699269708 8.4260674877543 8.4405981732121 7.6068825440774 8.696695585209 8.80774972009 9.2651137836168 9.519131666626 10.701030112532 11.100373905661 10.976304151611 11.634159020465 9.1255414572946 9.3757491834701 9.7404954081532 9.9038409703295 10.932221338611 11.635095055349 10.050014387293 10.433283718391 8.5773999262805 10.94492958839 10.039051825286 10.551293291446 7.7774817176561 10.067340537507 10.31677101204 11.758819185744 9.7556603677589 11.179554500195 10.746130625774 11.202729569701 11.631738613406 12.220988537595 11.611749596369 12.023557458195 10.543351392657 11.740979842184 11.037002323128 11.304795470328 12.190847573112 12.778624461494 12.072607658162 12.842764087382 10.404590400097 10.367011577477 11.566307869642 12.056713536726 10.880206134619 11.276082768641 10.36094538469 10.585344415183 11.287941311647 11.308635079582 12.31796722444 12.919388102332 11.544882915637 11.731012778766 11.764075678024 12.153640053402 11.980436977906 12.510942723111 11.387651148816 11.58504036912 10.168758896317 12.052703581236 11.97037193797 12.208001438765 11.787685743273 12.266015389865 10.639856665313 10.723246935946 12.359281018827 13.180867670745 10.280836571206 10.469441197023 10.813435019101 11.324607951813 10.155388571089 10.451193117089 10.783551392902 11.008784405177 12.317691576353 13.351093659934 10.565828113673 10.654792753965 11.078204385051 11.401737064015 11.397903852296 11.982416757236 9.778744497683 12.089452762129 8.3151879936617 10.39217735699 9.8803139013614 10.976773254704 10.786865779616 11.055232616939 11.07569124636 11.607767775248 7.8580758970721 10.760310510731 10.52949519253 11.824585450975 9.3829122172539 11.396986368618 10.24491792402 10.081752859314 8.931915509524 11.389520830527 10.017313135931 10.360182216719 10.819413871866 11.1884843162 11.570084937325 12.457954016353 9.7134314899669 9.9697257488179 9.1256181125884 9.3561602125396 8.5276775719737 8.5004455100653 8.7592603130724 8.8263871778829 10.97861599879 11.466328225254 9.9215223546551 10.224813344125 9.3307584186041 9.9676972320226 8.4830390131484 10.200146987644 8.209843606862 10.899554599178 9.8728115595991 9.9428010069229 8.7261154643089 9.5844016597493 7.9050614737665 8.484744424058 9.8303288810363 10.820448240486 9.7800377445498 9.0931107494177 9.2764112024844 9.2754483319087 11.172919881066 10.906510519716 9.6873112618138 11.365940877602 9.7182919782482 12.116857526561 8.6796674675072 11.254947410041 11.404750114588 11.720886320187 8.7758660755924 9.8747239841488 9.5009067884968 11.727817913335 12.141702749968 11.572568190809 9.7247944024659 11.10333592209 10.261184782548 11.89685444571 11.153392589697 10.973588870732 10.372939520391 10.714343005562 9.5383224024338 8.6153411151812 9.3666463144828 11.547953566398 10.131186418552 11.691307830762 9.0320373980499 10.024196013725 10.067872523739 11.905398536534 10.163774552926 11.364964255961 11.095552948812 11.069329938491 9.9985093970531 10.980159619891 9.374357746176 10.823894800674 9.9592884369211 10.973187838616 9.8285664495461 10.396909368604 10.361848247567 10.610246187527 10.358522095635 10.876422934344 10.416303023804 10.268068565311 9.934868147292 11.011650002372 8.7944198296583 10.970130906122 9.8481917022052 11.759813378948 8.5861661144314 9.5310139388677 9.6403562793484 10.340046413702 9.2906997075461 10.932532009971 10.062327129227 11.012181496784 9.1646227779402 10.504018807602 11.310334352091 8.0478277273672 10.36434328127 5.5908161390381 8.6718365439088 8.1312494889685 7.5703582645018 9.7690283846511 8.1196283098209 10.072965989707 8.8031555350371 10.048994574646 7.5482849356809 10.89426291539 10.972906999881 10.004165398351 10.464258405589 10.026216192969 11.162476917981 10.795899208956 10.542931786517 9.6885138172731 9.2571323580259 11.042948126341 10.150362321349 9.2840620800614 9.3373482659631 9.9941950304568 8.2190829311361 9.105545753519 7.8333614900836 8.3620253208304 7.2824654281871 7.5099946696508 7.7879146458992 8.620644021026 9.2061404797809 10.173308853187 9.9136984569869 11.24592038991 8.4830518740934 8.8396186074842 7.6827792042309 7.8202447779467 9.96575548099 8.6683152004945 7.3550532364934 7.8060966145856 8.42848854311 8.5265439078666 7.8834897844905 8.2971544065471 6.2261956046158 7.7905901007208 7.3691043535313 9.7898927448266 7.698638054746 8.7391548237181 8.7803458233831 8.5361477167166 7.9615974736462 7.8542221412804 7.4916141182097 9.3062357197301 11.418213437764 8.4056309809169 8.4109973348814 9.5903669635899 9.1809877279312 10.453166516686 9.1357707315787 8.6289314723294 11.466526448994 5.3650731441297 9.8768351296556 8.4750872676581 9.7253596305678 8.6655956864975 8.5574570056883 7.9020960680327 8.7743141492493 9.9619368796752 9.7080496796977 9.7290360623509 7.8041911043511 10.846120202652 9.6943174112781 10.485247613474 9.8290782414788 11.20463075239 10.016371658536 10.488984509821 10.512206762123 9.8802692771177 9.1747032660196 10.641167408045 9.088933779467 11.252134397922 11.350107230767 10.975380073864 10.212652638222 10.935378706227 10.073431216712 10.965908007868 9.9507484716617 8.3943493688709 9.1774554929878 10.843434546241 9.7712234745016 8.9148748789469 8.2558450224344 5.3593821496375 8.3978395200437 7.2938619048462 10.812400595178 9.4636532379104 10.988000364084 10.45960618824 9.8677538114754 11.09372869267 9.1952783039233 10.234910455921 9.8925321261051 9.4989830014992 9.1602605318576 9.796167896934 8.6775961576607 10.272883234222 9.3392875988887 8.9169918125727 7.7717019812126 10.363930934466 9.8320955418924 10.729889441924 9.112689337656 10.030775773909 9.2691636548285 10.250739312553 9.5722184025975 8.9887555008437 11.062496938938 10.026853099129 8.0150255592775 6.0867119668478 8.6517675593596 10.095548699505 9.0306897498523 7.8614689637664 8.1917369941952 8.8673567450036 11.52320433216 10.166189964779 6.0929214912006 8.8443336549284 9.1088921119777 6.0750040718814 9.2234534830055 10.200664403058 5.9287588943549 9.2696755622967 9.158666682787 8.5681475419287 7.4263760437557 8.4793630610612 7.8127951361186 9.2317002892681 8.0122040237387 10.11954437431 8.9528172203299 8.3733043701511 7.2346128616195 10.00045912698 10.800154278732 11.574105123155 8.7916993535385 8.0997585748391 7.0875286058416 9.9732902047376 5.7467413876497 8.432490921196 10.505209578761 7.5825965521945 6.1464833822409 7.2423613707905 4.7715692665132 5.8875796320855 9.3960734216839 7.4318537310911 9.8357143848127 7.7065697339318 6.5963190391758 6.9042990592669 10.703312757612 8.8780871734273 9.4582254310564 10.248692629614 8.6366211241347 7.694328651608 11.022677741652 7.8692735786019 5.6537372536633 5.8829365192318 6.1836583021587 8.4197603156176 6.4528689957618 9.4787102351901 9.5770097531419 9.8140135044549 9.4895646290149 10.179039358638 8.8602249890589 6.0448337039151 8.671804602921 9.1832092812689 5.5787429511156 10.054035040544 9.606136031815 7.2830649009527 10.035199037019 6.5835184390317 9.2192742415006 6.0326292174059 9.5891924931679 6.6685170990681 8.858209387061 5.7980356629988 8.61211634539 6.0481600769592 9.940962313486 5.0744610121554 8.9293341392909 8.8055607675386 5.688864682678 3.4148482180158 7.0487044070246 8.43617120208 7.4340681346431 6.8058282414621 8.9098037396958 7.5650595264749 9.7755520255683 7.2047380265259 6.3947499197331 9.1743635104216 7.1769813423913 8.6865762063004 6.1667786213391 7.0937974206907 8.1804296855693 6.4719869569301 9.5951056799563 6.9104681153646 8.7253776140137 9.2376247322477 7.5977744881178 6.4263925954003 8.0523440806709 5.4531098161448 8.9412350007978 9.3693096243375 8.2617324490792 10.053913869473 9.0095189193158 4.6243587163242 9.3564954799856 6.0465439940316 8.212982675494 5.991384422223 8.8798857114057 5.9286782118409 8.0148792972577 8.8284542900429 6.0196664108781 8.3354667918655 9.0312803811528 8.5876857124344 8.3671845934366 7.8350200277277 6.7466594822064 7.228930017852 5.8302603590374 6.5989072309912 8.7173855971998 6.4418297377392 7.7306589103025 4.3050732115063 9.1971398835017 5.859750084688 8.3012503647435 9.9536668025331 10.254453949117 8.3883861629576 10.93702739243 7.7199001614648 8.713370275816 8.0006296041803 6.7952264006674 5.4157517495033 8.0143958998743 5.8332172240036 5.2129125111911 6.3501512063979 5.5986275879565 7.8363026552342 5.9662334117731 5.7802358563413 3.9244205294086 7.1647650805745 6.8282852490415 7.6610657828532 7.0544541575385 6.5096321876863 4.7769092944116 5.8703110102443 7.3194487387756 7.0961553070897 7.1943308821816 5.593955800452 7.5897895428458 6.9283623493301 6.8163274606079 8.6124159907709 6.0966792756452 7.1114798436625 6.3298958369838 6.9268307966756 7.1457252399294 6.0214948236319 8.6481009150778 9.6015350814247 8.7871669919531 7.5695095238538 5.7151737464045 7.4005503065356 7.1950456299661 9.0968713727965 6.41453368372 5.5728965428385 8.7037765311448 6.4501214611907 5.2744559760036 6.346569227058 7.3450732990423 5.4606586101414 5.6841288947869 6.3722673463746 5.9906144125816 4.548547538203 5.6371237884996 5.0693113283576 5.3820271717649 4.5218284077829 4.4395660006337 6.2917436965129 5.0745764415815 4.0676624878703 3.9523125702041 3.2786171453834 3.8960106441343 4.2424431249167 7.2044620945536 7.3017680106902 6.6487939423094 6.8424980866368 11.220029412213 5.4860227359055 6.5686459907512 6.059696897994 8.4772704861748 9.4150892921688 5.5930470407585 6.0327148908134 6.9265545450768 8.7119415780001 6.413757815099 6.2224024530424 8.4367011105925 6.6818596245786 5.0615065014755 5.6095670339383 5.9296935437724 5.3831593717239 4.4365953495042 5.4633192767481 4.6792283299433 5.5135428196267 6.1801863803277 6.6024566901897 5.0272789037478 5.693733626108 6.9045194455197 6.1763575174649 5.1215210577162 5.557684227705 5.1350856346555 6.75326560754 5.4370193806148 3.6631929895559 6.2065838703212 5.1997478124174 4.3582841358607 4.9350489390589 5.8289046271723 4.4552772567101 4.3472138555593 6.3233850377532 6.8699915092281 6.8660412775828 4.3466146898783 3.4029615444336 4.9947511794531 6.1898875908088 6.1839986391575 6.1982739147298 6.6391780266229 5.3783113183266 5.6477179563837 4.8257151333883 4.5191693825646 3.9789273230089 4.4878407891116 5.5472879421672 3.943794114883 3.7618449043489 4.9352910325347 4.0660876003211 4.4730198282977 4.8337760322135 4.6245075426323 5.5758247093536 5.1292713156364 6.1073731832438 6.0227356561428 4.7861123607436 5.24275548671 5.8834806387915 4.7119453807917 3.4498573510205 6.4290829596335 6.4278740415659 7.3456801560778 4.3681732230109 6.2436944724641 6.1357171855105 6.13396224171 5.6755616198677 4.7912048166687 4.2625793713979 5.6751596394942 4.2828994777295 6.9602883900176 7.6644355355597 4.7872311846403 5.5239060793612 4.2634457366436 6.027651924842 6.9378348955216 6.579642024446 4.4592115972728 5.0120319526462 3.1948507896133 4.7812380542015 4.0687300851724 6.6804690966966 5.0988330191064 5.6317209055211 4.628348901094 4.0129997934204 5.4068915359553 4.5609661247181 5.5575269354298 3.8278596944951 3.9906473267096 6.1713486859222 4.8895330961961 4.2517981828134 5.5908445109955 5.0338155593437 6.0898861944475 3.9217400838863 5.1153616660655 4.5104520268026 3.9959105646627 5.3994000466586 5.0094654205207 6.5876469776418 5.2470292659081 5.9503819905259 5.856053680644 6.7313343257809 7.1593496601906 7.4002885041556 5.1090746140243 6.3250452947838 5.7588428291588 4.5529111681543 3.953062953064 4.6501840076778 4.292702504481 4.8627663979397 4.8560662335819 3.8386090503235 5.6306267075753 6.2534719829504 3.5732216829689 4.1833221666232 5.6430654103022 4.0162080653898 5.5443968446412 4.3321667717276 4.3452021371192 3.3857559459361 4.8110563331671 3.40846644091 3.5154767318589 4.5427648898865 4.003394885116 4.6814960596514 5.640085134482 4.7215892440646 3.5921011764839 3.9144705454354 4.3578854307765 5.203680460057 6.1877305819174 4.7