# vtk DataFile Version 3.0
d-2__ created by libgimli-v1.1.0
ASCII
DATASET UNSTRUCTURED_GRID
POINTS 570 double
14.5	0	0
14.25	0	0
14.386963504964	-0.201738469428	0
22.399299936458	-0.310870122736	0
22.129824335287	-0.229914148082	0
22.126320781198	-0.518791771445	0
8.472303742627	-0.591754876635	0
8.780507935475	-0.76092407121	0
8.82173151259	-0.349253271447	0
18.663262297679	-0.667179415955	0
18.934786529245	-0.453308328646	0
18.636898038907	-0.29588182328	0
4.016904362632	-0.85330676142	0
4.076038737616	-0.331410355179	0
3.713721571226	-0.470767763626	0
1.89953779852	-0.269343012166	0
1.633800503821	-0.203067612233	0
1.644492760828	-0.441295523531	0
4.368408037607	-0.250833874131	0
4.337474161742	-0.544420985055	0
4.67745607622	-0.378433532554	0
1.406172533733	-0.772361039307	0
1.913288206557	-1.218576310882	0
1.90687689783	-0.651895683444	0
2.5	0	0
2.25	0	0
2.347047126858	-0.185539804102	0
1.374000926997	-0.300418771701	0
1.25	0	0
1.114902662369	-0.201591505098	0
1.067401015567	-0.470108640981	0
5.75	0	0
5.699780065382	-0.324747799653	0
5.924584257371	-0.172748359932	0
0.883560935405	-0.231136840652	0
1	0	0
9	0	0
9.117836368049	-0.253904480787	0
2.625577516194	-0.346770599322	0
17.859079774019	-0.943547525024	0
17.535029634209	-1.703182852412	0
18.338018094476	-1.366069799339	0
19.932263871771	-0.826489183604	0
19.881635677668	-0.346204516721	0
19.622287080959	-0.573770479943	0
1.5	0	0
1.75	0	0
23.25	0	0
23	0	0
23.109690227386	-0.220340974338	0
2.75	0	0
2.142562771237	-0.172460438312	0
2	0	0
23.332392704446	-0.202507275941	0
23.5	0	0
19	0	0
18.75	0	0
18.888143078348	-0.195773419804	0
2.90152418742	-0.185685383897	0
7.612175045312	-0.180627982114	0
7.527150943175	-0.401430797998	0
7.881917737402	-0.30462800112	0
25.630635194756	-0.512020961038	0
25.243766894324	-0.80097755811	0
25.758031115142	-0.952821630144	0
3	0	0
28.84859809239	-0.201276387394	0
29	0	0
28.75	0	0
4	0	0
3.835807353334	-0.199536243303	0
3.106904732949	-0.178783649348	0
29.25	0	0
29.092446172194	-0.305987136665	0
13.5	0	0
13.667851890428	-0.185102765244	0
13.75	0	0
3.75	0	0
14.407363653886	-0.441423674912	0
14.125469935998	-0.279652141152	0
4.25	0	0
5.061980176718	-0.407989246181	0
5.335512032876	-0.269401530321	0
5.113979852892	-0.173834924157	0
11.882046000841	-0.812345557852	0
12.478640631525	-1.146569360669	0
12.244190771573	-0.565936619511	0
3.633270844505	-0.195395238442	0
14	0	0
18.378272976509	-0.514977451159	0
5.5	0	0
9.619519097921	-1.16461851757	0
10.030576753886	-1.587265312651	0
9.961661342999	-1.070235523667	0
5.25	0	0
5	0	0
13.157975569138	-0.830425793913	0
13.83833027638	-1.238601004239	0
13.671302359608	-0.710707966059	0
11.325917093147	-0.8366783502	0
11.612143285947	-0.506264798476	0
6	0	0
7	0	0
6.83842404292	-0.188923754932	0
7.11236984822	-0.391746146843	0
6.631875629497	-0.169178192832	0
6.75	0	0
3.21002197083	-0.595267231049	0
3.445510026908	-0.608065324465	0
3.362318141622	-0.306501255187	0
6.120159502895	-0.164221934939	0
4.538525595924	-0.906226152762	0
13.233775457127	-1.737244787017	0
4.5	0	0
16.138065841822	-0.472802517973	0
16.126746690205	-0.221608117926	0
15.859319180798	-0.326402762318	0
26.080401003391	-0.227842452866	0
26.25	0	0
26	0	0
3.019224421113	-0.401469974918	0
8.234901607028	-0.35771789179	0
8.518285578354	-0.242327591839	0
8.328777073389	-0.153008859619	0
7.25	0	0
7.400656881666	-0.195280611572	0
7.5	0	0
5.385509485898	-0.709154879541	0
5.948697127931	-0.745234910621	0
8.75	0	0
8.5	0	0
8.25	0	0
2.214249105773	-0.404278959534	0
2.896561357202	-0.792481120253	0
9.25	0	0
4.920911116561	-0.192028847294	0
9.651670336652	-0.200847798694	0
9.849824537955	-0.19917205686	0
9.75	0	0
10.095049354068	-0.315754204277	0
10	0	0
3.25	0	0
6.738406513564	-0.710129601907	0
7.121614580011	-0.943026074581	0
11.345829942703	-0.314788260019	0
11.25	0	0
11.104427225455	-0.188863495516	0
6.052412255932	-0.372556729023	0
6.373371846535	-0.274163514827	0
10.25	0	0
10.380281579003	-0.241092027437	0
10.5	0	0
10.75	0	0
10.909079077441	-0.189427130481	0
11	0	0
6.25	0	0
6.5	0	0
4.75	0	0
3.5	0	0
10.672815698565	-0.318467932684	0
10.772487906066	-0.787092734739	0
11.020900486567	-0.439266778492	0
8	0	0
7.75	0	0
11.5	0	0
11.619450354736	-0.231443672836	0
11.75	0	0
8.139317726831	-0.163309591658	0
12.25	0	0
12.158949464947	-0.235415698299	0
12.412455385193	-0.275030800337	0
12.929165084344	-0.221336108042	0
12.686337592177	-0.258437422252	0
12.900449535554	-0.462768612232	0
12.5	0	0
9.405755833308	-0.325979504745	0
9.111697192308	-0.594170467817	0
9.457257345083	-0.753685223931	0
18.101369157139	-0.618560521812	0
18.336839281097	-0.861122419318	0
10.385948631267	-0.570640149046	0
9.5	0	0
13.411260455969	-0.342646276848	0
12.643108055516	-0.590179775368	0
13.137744715761	-0.195204172124	0
13	0	0
21.25	0	0
21.358341816502	-0.326561417551	0
21.5	0	0
13.816492716597	-0.40394453634	0
20.25	0	0
20.423452336785	-0.313445603959	0
20.5	0	0
17.789350393153	-0.390447709085	0
17.987794057246	-0.401472255242	0
17.881276545163	-0.206424156589	0
19.564465692234	-0.270867872644	0
19.290725118801	-0.49926248604	0
16.392319441256	-0.29915360323	0
19.443730892406	-0.923508713428	0
20.457987075478	-0.803203365193	0
20.167450719332	-0.505159975143	0
0.103762538371	-0.253013629949	0
0.267057015134	-0.483604909932	0
0.374713194419	-0.2320817565	0
13.25	0	0
17.415572543912	-0.230682214253	0
17.5	0	0
17.25	0	0
18.108153655084	-0.208141099276	0
18.25	0	0
18	0	0
15.75	0	0
15.544586046819	-0.246453491997	0
15.122708481244	-0.193620038745	0
15.25	0	0
15	0	0
19.75	0	0
24.149237782749	-0.319013340846	0
23.842766599446	-0.577371105011	0
24.183995039967	-0.73159476451	0
13.871646321742	-0.17394291424	0
23.862588150518	-0.245417872715	0
16.84024277193	-0.203626765466	0
16.704049384397	-0.435508179396	0
17.112673188265	-0.38804641709	0
24.75	0	0
24.832880292394	-0.290571430318	0
25	0	0
16.40158555625	-0.755912194683	0
16.850299990829	-0.757941865332	0
17.75	0	0
23.567455674596	-0.325197491724	0
16.25	0	0
16	0	0
22.645812614293	-0.197864648876	0
22.75	0	0
22.5	0	0
16.75	0	0
17	0	0
24	0	0
26.914424714815	-0.337869958787	0
26.621963281699	-0.624626679172	0
26.977877660759	-0.778408201088	0
26.622424322919	-0.264588309935	0
19.34462271879	-0.199329831305	0
19.25	0	0
19.118057075065	-0.225686869553	0
19.5	0	0
26.75	0	0
27	0	0
27.5	0	0
27.604422363523	-0.298869962794	0
27.75	0	0
17.650384190064	-0.227839036584	0
18.343198956448	-0.236734208617	0
18.5	0	0
24.25	0	0
20.143897114391	-0.233773711865	0
25.5	0	0
25.25	0	0
25.344389320279	-0.31693710653	0
21.059546193318	-0.24845941382	0
20	0	0
25.842927934822	-0.248287716678	0
25.75	0	0
25.613904645132	-0.216025146631	0
21	0	0
11.763551406169	-1.481607093928	0
30.981104050195	-0.5526690913	0
30.873880294509	-0.217692518774	0
30.706626759758	-0.34945139905	0
20.75	0	0
20.85240828135	-0.178025243856	0
23.75	0	0
20.66289882074	-0.189089155251	0
30.204950808504	-0.791758966623	0
30.715535843381	-1.149995259266	0
30.543724897762	-0.572259098027	0
30	0	0
30.180216671806	-0.343473673313	0
30.25	0	0
23.229584388362	-0.458653998547	0
29.5	0	0
29.623391954444	-0.322069028408	0
29.75	0	0
21.618913855927	-0.233585823579	0
21.75	0	0
29.348490380579	-0.521100538161	0
29.36294710412	-0.230601226356	0
22	0	0
22.25	0	0
28.25	0	0
28	0	0
28.129259193923	-0.314252106503	0
28.44374413871	-0.484576386004	0
28.100199615755	-0.812038297775	0
28.649230646972	-0.871769248311	0
28.618403654115	-0.227691192115	0
28.5	0	0
28.387848605749	-0.205892081491	0
29.054768525933	-0.708603081552	0
29.344906532636	-0.846887322836	0
26.327430876245	-0.35930637997	0
10.349120516034	-1.04150119828	0
10.894920134778	-1.514321070539	0
24.59640839418	-0.191760546865	0
12.75	0	0
24.5	0	0
13.102881121377	-0.411296235356	0
25.099388239946	-0.214879887129	0
25.97986022697	-0.52841375324	0
24.398993403151	-0.196312410538	0
17.860840746535	-0.577367743328	0
17.566481510048	-0.529340016102	0
26.5	0	0
16.637148248735	-0.188015807345	0
18.183918302467	-0.396443618316	0
27.159348252167	-0.205297590358	0
27.357530053515	-0.198815038154	0
27.25	0	0
15.060354649709	-1.112587998155	0
15.51532665618	-1.043792149387	0
15.178150912169	-0.713100616689	0
10.051363365948	-0.719159376333	0
14.661248691948	-0.27865166374	0
14.75	0	0
27.868836823455	-0.217301839861	0
31	0	0
30.75	0	0
-0.020273477909	-1.415389842481	0
1.054972770973	-1.487485199502	0
0.512583677021	-1.0438154777	0
0.75	0	0
2.361419414365	-0.794513604096	0
29.890297721653	-0.2433406165	0
30.473599299501	-0.238575611274	0
30.5	0	0
30.660802173874	-0.161931182737	0
28.783812899585	-0.467926883932	0
4.937022539393	-0.72440615077	0
6.696914540879	-0.380672503721	0
7.434272221796	-0.695675918868	0
15.339606453815	-0.166204802571	0
15.281953315711	-0.388999642276	0
11.893544445085	-0.335972898148	0
12	0	0
9.753796445798	-0.478866225926	0
7.720012958977	-0.638314519759	0
21.871398197179	-0.313006985103	0
21.615176662754	-0.521922347305	0
21.856785525528	-0.665128848631	0
20.792152536902	-0.448319093295	0
21.109577821412	-0.527879642114	0
21.360297691811	-0.734200004244	0
15.547854961707	-0.580173571081	0
24.496861814148	-0.467031445896	0
25.067351422649	-0.463427753535	0
24.81263825963	-0.684738154192	0
22.865620821195	-0.218348593093	0
23.443705587002	-0.773171720633	0
27.277617447467	-0.489224417775	0
27.863714790534	-0.471681393437	0
26.239117668995	-0.863279739365	0
29.896797054636	-0.547765129844	0
29.612773839625	-0.699757135752	0
29.867172666547	-0.87444432816	0
29.610354212963	-1.521444655905	0
29.59548165142	-1.071765512911	0
29.115129171034	-1.220660174798	0
31.345359428525	-0.458952144926	0
31.144859415042	-0.241304201582	0
15.919565295974	-0.746550096707	0
16.063006820294	-1.289595303187	0
16.5	0	0
14.900855313538	-0.178071167744	0
14.161016743654	-0.72559708689	0
19.011498044983	-0.834202892304	0
16.760433281999	-1.263698818643	0
17.280361389946	-0.931704507314	0
-0.627742252535	-0.296285438777	0
-1	0	0
-1	-0.5	0
0.625738545692	-0.228405936136	0
0.5	0	0
3.313957665883	-0.865581185485	0
3.619156095452	-0.800599314657	0
[...]
CELL_DATA 986
SCALARS 20.00_0.69 double 1
LOOKUP_TABLE default
11.827750827367 10.550922155619 8.6885733015938 9.3508704292902 7.6502502795918 11.100208376893 9.6534070836772 6.1680306814911 12.431703034952 10.658316275947 9.8141253316671 12.898269290879 11.565859196025 12.892670711841 12.45188828094 11.427523110719 4.9122386957478 8.6482278894038 13.27458092489 14.7221961121 12.604124285391 12.116397282691 14.796283904549 12.05461459987 11.461970258725 12.096212228541 11.546713699278 6.5695389791914 12.548384673412 12.845361937191 10.780839653482 12.020741992067 12.642379780869 13.6462850768 10.437975111641 11.091962732565 11.784136359493 10.750674165602 7.0231397084782 11.039549751114 16.120915945378 9.3612960611768 12.318529690041 5.344798990288 12.356135007865 11.692659922258 7.2117785132721 8.0406026128655 13.296660147882 10.834404828234 11.601767174522 10.396135291866 7.9487298014874 11.849604055811 7.7295341115983 13.070184789453 5.3774267686626 12.623592686384 11.093884262037 10.69087136805 12.872544367303 10.540327160875 12.537803349363 13.288293185231 12.782564224593 12.613558673745 8.4904537076763 8.6893743149771 12.898391174967 10.435394840129 13.69151123236 12.983742030216 12.723039607005 12.756399147433 11.239261421967 8.2090622402801 11.813645564098 11.93683556254 12.091945781264 11.7086176796 11.14827611713 8.0339863903381 12.995451276657 10.474997015326 13.223903211136 14.718658535923 11.637521553579 12.99028051311 12.657773460498 10.716376537811 12.374818112674 13.173883625232 10.425470121876 10.822402224285 9.8811803581236 14.180309698909 14.621463257995 13.681631239787 12.544446983459 12.722864188388 11.527383152837 14.656047756605 10.862657346208 12.060218541559 9.1498264276374 8.1474096540449 11.02421056914 10.783396718479 9.2412588194641 11.275257191938 10.261703601213 12.159138392556 10.798551393039 11.516689776499 10.658596053068 17.314987934613 10.586886456786 12.854836958751 9.7758769762564 11.464464687161 7.7705948861019 14.068415700014 8.7627396113156 9.7195558378139 10.577760298326 12.767582506982 9.477225270072 10.159350904699 13.756405368751 13.444648161107 10.392831100365 13.104312687052 12.661643874571 12.829679072626 8.2634228821718 11.478364290331 10.174486011438 11.84350387898 10.645088230069 8.6686487870727 13.016601168077 9.7175882218632 12.639318056109 13.408223173237 18.434771559383 14.477336197918 12.374969656636 7.8076974434805 10.651630914743 9.3270378627769 12.256154201319 13.725653559099 11.312688733529 12.199823968371 11.74119388749 12.194672461517 13.102581409684 11.970491820596 11.123871339641 10.706217456957 13.821574811024 11.735907765526 11.870236525778 13.969444727222 13.19338421927 12.197200067014 6.1762413138218 10.383355945242 14.186583248608 10.936150368304 13.696136893288 12.513273164978 6.3031773904595 9.9122772637872 11.531698478756 9.6546049901856 13.789474743145 13.73523425214 9.6381445962746 10.780953509781 15.279084100536 13.517424866247 12.689953029513 6.9912350406214 7.1297459001258 13.257184157009 12.646203918155 13.029811795297 9.890937083732 7.6444206754339 9.1417013750884 6.1526516192584 11.210228642383 7.3095391947888 11.562739808831 12.399075665908 7.2218582986146 10.892811180227 13.073120521935 10.008912053878 12.23291653922 10.180926492923 12.865304605012 12.248685185619 11.355069065388 8.4024133962208 11.950509549083 10.873110358174 12.990797572892 12.543382642556 10.147268231391 10.743706058492 10.414558340901 10.603702151863 11.244394021613 11.532660628016 7.5573586105192 11.476611343641 6.6285466877577 10.798903129745 10.893129490996 13.878527641754 11.818167520068 15.555748417867 10.899763309132 11.981393573826 12.687831527813 10.459519522561 9.3931570472078 12.856677604916 11.451474202366 4.5068762011555 12.467449641734 11.661117839036 11.218139881371 11.588030330038 10.752196743046 6.9821673683319 12.277512734633 9.1898860600188 9.8835941405419 9.0508586399322 12.376945502759 11.621939886155 11.232111311253 11.852343184657 12.219148828715 11.202349452465 9.6045147306828 10.373401488671 9.5165164599549 11.631848211646 7.7004214426365 11.445431261347 11.447219974147 10.311769758202 12.831307107863 10.592149444547 13.374393812576 7.9339601548649 11.19101920571 10.816462068386 12.625047365513 11.180908372696 10.583535948917 13.690889934379 9.7671945003222 12.8587999585 10.163480692501 10.515956403151 10.154284499319 10.757326792677 11.256195904168 10.950693392041 12.24070937788 12.514345417252 11.794439552148 12.873951212725 11.480749555214 13.129142027622 8.7405536384484 12.861160210467 14.00639523937 12.800096423673 7.6798945083976 13.666577884133 10.940261685395 12.820949934139 14.077240117965 11.606409374082 9.784953980066 8.7924839217657 8.8966412467215 13.892033852491 10.893980368989 10.691515174948 11.4044132501 11.941597178739 11.437441988864 13.178269387806 9.2085377911977 14.466401338637 13.214882559961 10.694966307755 10.769798705084 8.8123310651124 10.981609932605 11.654946362345 10.759076105783 11.808092480814 10.668197525437 12.353286985486 10.549938566061 11.455883518211 10.631071368595 9.0439777647366 12.358917678233 8.2156002643152 10.197804981905 12.261249997904 9.7737521756618 10.953973695815 11.539968206315 10.481707444189 9.691825485144 9.5907887217517 15.171911940493 7.5951680373782 7.3307709563236 5.2814597324332 10.063455571995 8.5687128356848 10.873492068427 10.870756437294 9.9938047402068 11.225106956968 11.237249971453 14.75020691168 9.1949886256068 12.734868313116 6.8456934316289 9.183358154373 14.081878189436 12.035904882779 12.261297399185 10.360831174704 11.589434087896 11.011565305403 11.215693534696 10.622728267937 10.650193670723 7.061917098016 10.548694468037 7.1448965255792 11.679534524021 6.7865489414264 6.1568525318634 8.3805114131722 12.799878197843 11.335941065122 11.592907062176 6.350232863616 7.6023519465396 9.518616965755 12.26759985018 7.749234616346 6.5825924423318 6.5586772997894 7.1479575761637 12.095519009464 12.84753341074 10.945162869528 8.7812847055379 7.6335301480332 9.2577306377053 11.299041683971 8.6424521235516 13.14867127581 10.761559582574 7.9975792123957 5.6946170561525 10.202538083468 10.404618213569 13.642914780751 13.19627248332 11.275989248839 10.117612370805 12.343946499092 7.5949638975394 13.649589639846 9.3328777181585 9.1622005115887 7.9951176381229 10.825428259612 9.1768499177065 13.21670284263 9.632892260875 9.0362051899009 12.382227102172 10.18330437057 12.933304908857 13.018816649979 10.705792108328 10.889680319877 7.0743650409985 12.769539387502 7.7918501569089 11.429614332132 10.737640824931 12.056992165799 11.47627561482 10.189866131825 10.964758318325 8.850042069408 10.671034580103 10.899206554359 8.5954751323902 7.772733337706 6.7230874147574 9.2413660520628 6.3880211246098 12.591502749675 10.279223073285 8.468222800504 8.5267669261496 11.242017339581 8.0503641510613 7.396035246396 8.7484421566606 7.2180186432261 8.1719065952383 13.067331236246 10.815099768557 11.18154915113 12.902474028438 12.491467331631 5.7903665704624 9.5457152046463 5.5751389243922 10.034849870497 5.8474152865823 8.7935127310648 12.862958642571 10.307190475629 6.7616514700158 10.94077282072 4.8812303346904 11.567656200717 8.1948368755332 9.1411930710318 13.007988539154 12.903493358969 11.104928790688 9.9687518929765 5.7400007360576 4.3142495676932 9.0784875205496 10.957871565495 8.1477636813388 10.529630167038 7.9993166678069 11.289180250935 8.9600374511933 12.173529324432 9.6307064576448 5.3889757837767 6.307057352001 10.166276063465 6.4753007825068 5.3838778266974 6.9449461892364 10.717745222329 7.2803705171887 5.4828625656522 4.6333650327272 11.662564042893 9.1022685144581 10.370172933517 9.1334008008251 6.1707043705805 8.6608322622229 6.5131373298417 6.7407484908162 12.025927539856 8.9005682443032 8.354560481387 8.8229192171832 11.725332567117 7.404097855484 10.481348483031 5.1253496262691 8.6577135628931 13.124450634219 12.00780252957 9.2716083272268 6.894002828657 5.0963475403206 3.717368379678 8.0047138539825 11.638710520728 7.9766643373532 7.2686530417336 6.1927328869893 7.4087008892398 8.4223372582141 11.312060070471 5.5045703009097 9.8505701910369 11.033073048691 4.2975630969687 8.9595054765605 13.309387357792 12.318293040169 5.9129144915544 8.5621307131613 10.568985419445 7.219619929453 6.2309566269409 5.4245121786513 11.116461838376 11.124866736631 5.6905324974805 8.0961270944525 9.9018613666659 6.8800586113034 6.0525422979632 5.1954972905978 11.117482856944 9.243281876926 11.026094489635 8.1585705707488 11.691602687155 8.5398784905564 10.671295895872 7.6496304428713 11.164648500277 10.981433917075 10.130536164178 5.2517620712984 3.206295899717 12.037973600391 5.895083545205 11.962776340613 9.7599860123369 5.8098612879846 9.9258503179609 3.8113227319556 8.0043310549685 3.3179325913668 4.5776613903091 9.7190395758278 5.7565901965818 14.176417414508 5.5247732983096 12.131748353184 10.283370471504 6.2009472534535 10.969939434286 5.1935545563219 6.3240113338845 8.3128524003049 6.865787681914 8.5767288393151 5.9790819908964 7.8113228754064 9.8550530565172 5.4478378493536 4.6231935601474 9.2649289619351 7.9114604155698 13.099629690269 8.8742886912896 11.926083308915 7.4348489234084 10.47689245946 10.142178626927 6.4651486212794 3.9348709402098 8.3763337843287 7.1546959879918 7.4141965924779 7.4160664717537 12.925357473222 10.93420452795 5.3356325698067 10.32974274843 11.456594980538 8.4852456484614 8.8297733089569 7.7303318299078 8.1551739192631 7.3021956569957 4.1264061453907 13.578078149752 3.9067975026777 8.666667626626 10.514108284471 11.789897977851 6.8949754411631 8.4629334756972 10.900907328321 8.8138867301925 7.9899643039411 6.5063431172975 5.0091270584971 4.0773532855991 5.1202509854167 8.329826728377 9.7491675381194 7.4448339861626 6.1491532969617 7.46905384753 5.7600231111733 12.374856188723 5.5385850501774 12.054218457515 11.037502043408 3.4764960545542 8.7065357284427 9.5113372733136 10.585181013955 8.7799546803407 7.3139740050342 6.0697680748148 6.0245210306347 5.8637554844533 7.8753980162952 10.51156159061 4.0477448510854 5.0060982754217 4.4284075361164 5.6043732681653 4.8225556014206 9.410405753845 6.7970150080379 9.2656185535353 4.4917982673371 4.9077306091734 5.9213525959482 8.9201726009918 4.2158377156416 3.9147284552342 6.8720897469828 5.8117222957069 3.3132081977345 5.6619004885771 11.87497997968 9.7742448611818 7.0454658568428 4.5965481572282 5.3961423734106 4.4558713056972 10.008292506611 7.5699096892855 8.1651721127619 6.7897523758472 11.678654209982 10.68885069807 5.2247886648873 10.705601614603 5.89770529028 10.09364990328 5.2517304315442 8.8806047722766 11.322303856341 7.2267840995543 9.7200337292809 8.5448524882236 10.543052404597 10.580275818848 11.180875255916 8.4056537452744 10.592167623027 4.164052370084 5.6618329629818 10.701654140367 3.9478336573204 10.858212750712 6.9140650524976 6.3481813079975 6.2494452432582 7.6685129078958 5.5699444037071 4.7737498600381 4.9786542375174 4.9261113738617 5.072092971184 9.9095312818313 13.081101977211 11.278686966433 10.546539544845 3.7305250525585 3.028634421342 5.7105522953016 6.2694801668801 6.4614616469324 5.5091187932522 6.3089179833214 5.1165213509963 6.6977565696912 7.0137407548356 6.7598017342048 6.5655155482668 6.8153584180944 6.1834016671049 6.2281462852267 4.4947461092808 10.183509101457 9.5539091614238 4.3760669628369 3.0846084779256 3.3120127289507 3.2285296715116 4.0634672635068 7.0277658766799 6.1563268413534 8.4043141760814 6.5701734357783 12.253071323167 12.020713912042 3.8465130389975 4.3056287177695 9.6144306013906 5.6996807798841 3.7680917138129 3.9596743889549 5.2285386450837 7.6772739479873 11.795058322232 7.4021270576182 7.1179959910512 5.8127644897344 5.5432305988184 12.189965748797 4.5733839247417 11.306164973606 13.841627348185 5.8934193501853 3.9119477485302 9.9885532678586 9.8174057269223 5.3599713493028 4.5511333518411 4.3711001163297 7.062491391621 3.449653610366 5.3022439590149 3.6061150921338 3.5506265267329 3.9769728517389 11.099514913609 4.9358557722636 5.5593903461496 4.7518718933019 5.1155336961577 4.5752950595974 5.9612299696919 11.5552922302 3.4276595457932 6.1513159138595 3.1220472890317 3.6666404581633 5.0073833729722 4.405275025984 3.7303242589198 3.4238001071514 4.0865871456425 3.8898400500708 5.2020204286107 3.5108166077542 10.948949438171 5.2093131110302 3.6741455049192 3.9089512922877 4.8126110339655 4.6698267271854 7.5478196769881 7.015834697769 13.430096600217 8.7866396718492 6.3883510780309 7.7307956804821 5.180754236423 6.7863531916625 10.146460626125 8.3312624577353 5.1571304456248 5.6651122713521 5.4333261074023 11.781842145021 9.0897706639411 3.3519043294563 4.3729392240046 4.6693674348743 4.3103936792952 4.4266442822585 3.9007889791001 3.9913817680238 3.6849039977192 4.6246680409397 3.4863078628337 4.6779492731375 4.1973123702185 12.955498057404 4.4440601209833 5.5253872729182 4.898218420792 12.448623328597 8.1126152124654 3.4140994385835 3.2780723932366 3.3609274148617 4.3071078229524 4.9532148560402 14.052386183192 3.6069581043584 4.1570396717637 4.5104673460216 3.2423910879722 3.4084484566913 4.9561839201296 3.8290913865374 3.4725944392546 4.0136017833151 3.9106018448476 4.0589270081826 3.4832620611473 5.058896744253 3.5197263224787 3.5473855804792 4.1704549340695 3.25331080475 3.1728011643491 3.7756110691704 3.2054089295348 3.4756203267588 3.3239034484459 3.5676630068328 3.2596378790673 4.3889763625156 3.9070350926918 5.4042016385398 5.8238586387608 3.1533992713281 3.0737805751818 3.0742315052668 3.8239599744243 2.9227726545931 3.0379240968751 3.1531780657335 3.1708396865418 3.5394842322408 3.8848063817422 3.2481674821371 3.5008306072908 3.3202959497581 3.4826564219339 3.6562189809913 3.7471102251314 3.351796463643 3.323401611525 3.135699344365 2.9991866336913 3.0859984674301 3.1979731143412 3.3580827282819 3.3789057365746 3.3349469461433 3.0755646351153 3.4487961873187 2.9816671533072 2.9354645299656 3.2251044201779 4.0143709743576 3.0592853058892 2.9898532092867 3.0942735634363 3.1800696796499 3.3101966824275 3.2455352924816 3.263831091663 3.0948475114525 3.1862466580193 3.1967000951653 3.0176912678555 3.3396695792408 3.1752474844493 3.0871421679892 3.0354866829982 4.164373909659 3.5858581820397 3.2389477928895 3.2609232890112 3.4539377961625 3.1588396944564 4.3811466458443 2.9687043186929 3.2454629021125 3.1249236605822 3.0909685824338 3.1275965362813 3.1083029030402 3.675747749887 3.8079737167409 3.2676114512577 3.1086175331266 3.105114668628 3.0523428908161 3.2057782629676 3.3617827049534 5.1928823381347 3.5622408346223 3.426667563358 3.101795277867 3.6479394425121 3.2723773646046 3.967504851489 3.1864004644385 3.8349773299856 3.0879725197213 3.5370409193241 4.2636225899056 3.2184115499292 3.9483168613272 3.9205957760668 3.5038270177837 3.4556434211047 3.5846461906211 4.0813044646851 3.6488672359056 4.147931980489 3.5226805136056 3.4219151078612 3.5807302035855 3.2365691091427 3.5060333148035 3.4160418042924 3.8254603100509 3.8935029704616 3.2988094804536 3.782474080792 3.8719083366463 4.3419693040669 5.4213401323953 4.5801857626811 3.8194200032574 3.1593558396018 3.8510462965595 3.7887860414488 3.3009579919614 3.4330382482966 3.3730624132737 3.9129982515621 3.5308081995587 3.7862002910585 3.370450597808 3.8941496374535 3.8014681734391 4.13270895237 4.0645417970456 3.9291958076959 4.61638036036 4.2246208636147 4.0985301946775 4.0832319497122 4.420782328453 4.5651376430614 4.3624033443745 4.1799178997802 3.9808985007511 3.5488303557196 4.7963043487724 3.9603160165688 3.4471322396078 3.6878539963358 3.8897728391632 4.0723467331624 4.0693829481552 4.0291951949084 3.9375588011779 4.1427239903332 4.6803001457929 4.4430494322665 4.3535815525625 4.8101146977484 4.6189842977371 
SCALARS 40.00_0.47 double 1
LOOKUP_TABLE default