# vtk DataFile Version 3.0
d-2__ created by libgimli-v1.1.0
ASCII
DATASET UNSTRUCTURED_GRID
POINTS 570 double
14.5	0	0
14.25	0	0
14.386963504964	-0.201738469428	0
22.399299936458	-0.310870122736	0
22.129824335287	-0.229914148082	0
22.126320781198	-0.518791771445	0
8.472303742627	-0.591754876635	0
8.780507935475	-0.76092407121	0
8.82173151259	-0.349253271447	0
18.663262297679	-0.667179415955	0
18.934786529245	-0.453308328646	0
18.636898038907	-0.29588182328	0
4.016904362632	-0.85330676142	0
4.076038737616	-0.331410355179	0
3.713721571226	-0.470767763626	0
1.89953779852	-0.269343012166	0
1.633800503821	-0.203067612233	0
1.644492760828	-0.441295523531	0
4.368408037607	-0.250833874131	0
4.337474161742	-0.544420985055	0
4.67745607622	-0.378433532554	0
1.406172533733	-0.772361039307	0
1.913288206557	-1.218576310882	0
1.90687689783	-0.651895683444	0
2.5	0	0
2.25	0	0
2.347047126858	-0.185539804102	0
1.374000926997	-0.300418771701	0
1.25	0	0
1.114902662369	-0.201591505098	0
1.067401015567	-0.470108640981	0
5.75	0	0
5.699780065382	-0.324747799653	0
5.924584257371	-0.172748359932	0
0.883560935405	-0.231136840652	0
1	0	0
9	0	0
9.117836368049	-0.253904480787	0
2.625577516194	-0.346770599322	0
17.859079774019	-0.943547525024	0
17.535029634209	-1.703182852412	0
18.338018094476	-1.366069799339	0
19.932263871771	-0.826489183604	0
19.881635677668	-0.346204516721	0
19.622287080959	-0.573770479943	0
1.5	0	0
1.75	0	0
23.25	0	0
23	0	0
23.109690227386	-0.220340974338	0
2.75	0	0
2.142562771237	-0.172460438312	0
2	0	0
23.332392704446	-0.202507275941	0
23.5	0	0
19	0	0
18.75	0	0
18.888143078348	-0.195773419804	0
2.90152418742	-0.185685383897	0
7.612175045312	-0.180627982114	0
7.527150943175	-0.401430797998	0
7.881917737402	-0.30462800112	0
25.630635194756	-0.512020961038	0
25.243766894324	-0.80097755811	0
25.758031115142	-0.952821630144	0
3	0	0
28.84859809239	-0.201276387394	0
29	0	0
28.75	0	0
4	0	0
3.835807353334	-0.199536243303	0
3.106904732949	-0.178783649348	0
29.25	0	0
29.092446172194	-0.305987136665	0
13.5	0	0
13.667851890428	-0.185102765244	0
13.75	0	0
3.75	0	0
14.407363653886	-0.441423674912	0
14.125469935998	-0.279652141152	0
4.25	0	0
5.061980176718	-0.407989246181	0
5.335512032876	-0.269401530321	0
5.113979852892	-0.173834924157	0
11.882046000841	-0.812345557852	0
12.478640631525	-1.146569360669	0
12.244190771573	-0.565936619511	0
3.633270844505	-0.195395238442	0
14	0	0
18.378272976509	-0.514977451159	0
5.5	0	0
9.619519097921	-1.16461851757	0
10.030576753886	-1.587265312651	0
9.961661342999	-1.070235523667	0
5.25	0	0
5	0	0
13.157975569138	-0.830425793913	0
13.83833027638	-1.238601004239	0
13.671302359608	-0.710707966059	0
11.325917093147	-0.8366783502	0
11.612143285947	-0.506264798476	0
6	0	0
7	0	0
6.83842404292	-0.188923754932	0
7.11236984822	-0.391746146843	0
6.631875629497	-0.169178192832	0
6.75	0	0
3.21002197083	-0.595267231049	0
3.445510026908	-0.608065324465	0
3.362318141622	-0.306501255187	0
6.120159502895	-0.164221934939	0
4.538525595924	-0.906226152762	0
13.233775457127	-1.737244787017	0
4.5	0	0
16.138065841822	-0.472802517973	0
16.126746690205	-0.221608117926	0
15.859319180798	-0.326402762318	0
26.080401003391	-0.227842452866	0
26.25	0	0
26	0	0
3.019224421113	-0.401469974918	0
8.234901607028	-0.35771789179	0
8.518285578354	-0.242327591839	0
8.328777073389	-0.153008859619	0
7.25	0	0
7.400656881666	-0.195280611572	0
7.5	0	0
5.385509485898	-0.709154879541	0
5.948697127931	-0.745234910621	0
8.75	0	0
8.5	0	0
8.25	0	0
2.214249105773	-0.404278959534	0
2.896561357202	-0.792481120253	0
9.25	0	0
4.920911116561	-0.192028847294	0
9.651670336652	-0.200847798694	0
9.849824537955	-0.19917205686	0
9.75	0	0
10.095049354068	-0.315754204277	0
10	0	0
3.25	0	0
6.738406513564	-0.710129601907	0
7.121614580011	-0.943026074581	0
11.345829942703	-0.314788260019	0
11.25	0	0
11.104427225455	-0.188863495516	0
6.052412255932	-0.372556729023	0
6.373371846535	-0.274163514827	0
10.25	0	0
10.380281579003	-0.241092027437	0
10.5	0	0
10.75	0	0
10.909079077441	-0.189427130481	0
11	0	0
6.25	0	0
6.5	0	0
4.75	0	0
3.5	0	0
10.672815698565	-0.318467932684	0
10.772487906066	-0.787092734739	0
11.020900486567	-0.439266778492	0
8	0	0
7.75	0	0
11.5	0	0
11.619450354737	-0.231443672836	0
11.75	0	0
8.139317726831	-0.163309591658	0
12.25	0	0
12.158949464947	-0.235415698299	0
12.412455385193	-0.275030800337	0
12.929165084344	-0.221336108042	0
12.686337592177	-0.258437422252	0
12.900449535554	-0.462768612232	0
12.5	0	0
9.405755833308	-0.325979504745	0
9.111697192308	-0.594170467817	0
9.457257345083	-0.753685223931	0
18.101369157139	-0.618560521812	0
18.336839281097	-0.861122419318	0
10.385948631267	-0.570640149046	0
9.5	0	0
13.411260455969	-0.342646276848	0
12.643108055516	-0.590179775368	0
13.137744715761	-0.195204172124	0
13	0	0
21.25	0	0
21.358341816502	-0.326561417551	0
21.5	0	0
13.816492716597	-0.40394453634	0
20.25	0	0
20.423452336785	-0.313445603959	0
20.5	0	0
17.789350393153	-0.390447709085	0
17.987794057246	-0.401472255242	0
17.881276545163	-0.206424156589	0
19.564465692234	-0.270867872644	0
19.290725118801	-0.49926248604	0
16.392319441256	-0.29915360323	0
19.443730892406	-0.923508713428	0
20.457987075478	-0.803203365193	0
20.167450719332	-0.505159975143	0
0.103762538371	-0.253013629949	0
0.267057015134	-0.483604909932	0
0.374713194419	-0.2320817565	0
13.25	0	0
17.415572543912	-0.230682214253	0
17.5	0	0
17.25	0	0
18.108153655084	-0.208141099276	0
18.25	0	0
18	0	0
15.75	0	0
15.544586046819	-0.246453491997	0
15.122708481244	-0.193620038745	0
15.25	0	0
15	0	0
19.75	0	0
24.149237782749	-0.319013340846	0
23.842766599446	-0.577371105011	0
24.183995039967	-0.73159476451	0
13.871646321742	-0.17394291424	0
23.862588150518	-0.245417872715	0
16.84024277193	-0.203626765466	0
16.704049384397	-0.435508179396	0
17.112673188265	-0.38804641709	0
24.75	0	0
24.832880292394	-0.290571430318	0
25	0	0
16.40158555625	-0.755912194683	0
16.850299990829	-0.757941865332	0
17.75	0	0
23.567455674596	-0.325197491724	0
16.25	0	0
16	0	0
22.645812614293	-0.197864648876	0
22.75	0	0
22.5	0	0
16.75	0	0
17	0	0
24	0	0
26.914424714815	-0.337869958787	0
26.621963281699	-0.624626679172	0
26.977877660759	-0.778408201088	0
26.622424322919	-0.264588309935	0
19.34462271879	-0.199329831305	0
19.25	0	0
19.118057075065	-0.225686869553	0
19.5	0	0
26.75	0	0
27	0	0
27.5	0	0
27.604422363523	-0.298869962794	0
27.75	0	0
17.650384190064	-0.227839036584	0
18.343198956448	-0.236734208617	0
18.5	0	0
24.25	0	0
20.143897114391	-0.233773711865	0
25.5	0	0
25.25	0	0
25.344389320279	-0.31693710653	0
21.059546193318	-0.24845941382	0
20	0	0
25.842927934822	-0.248287716678	0
25.75	0	0
25.613904645132	-0.216025146631	0
21	0	0
11.763551406169	-1.481607093928	0
30.981104050195	-0.5526690913	0
30.873880294509	-0.217692518774	0
30.706626759758	-0.34945139905	0
20.75	0	0
20.85240828135	-0.178025243856	0
23.75	0	0
20.66289882074	-0.189089155251	0
30.204950808504	-0.791758966623	0
30.715535843381	-1.149995259266	0
30.543724897762	-0.572259098027	0
30	0	0
30.180216671806	-0.343473673313	0
30.25	0	0
23.229584388362	-0.458653998547	0
29.5	0	0
29.623391954444	-0.322069028408	0
29.75	0	0
21.618913855927	-0.233585823579	0
21.75	0	0
29.348490380579	-0.521100538161	0
29.36294710412	-0.230601226356	0
22	0	0
22.25	0	0
28.25	0	0
28	0	0
28.129259193923	-0.314252106503	0
28.44374413871	-0.484576386004	0
28.100199615755	-0.812038297775	0
28.649230646972	-0.871769248311	0
28.618403654115	-0.227691192115	0
28.5	0	0
28.387848605749	-0.205892081491	0
29.054768525933	-0.708603081552	0
29.344906532636	-0.846887322836	0
26.327430876245	-0.35930637997	0
10.349120516034	-1.04150119828	0
10.894920134778	-1.514321070539	0
24.59640839418	-0.191760546865	0
12.75	0	0
24.5	0	0
13.102881121377	-0.411296235356	0
25.099388239946	-0.214879887129	0
25.97986022697	-0.52841375324	0
24.398993403151	-0.196312410538	0
17.860840746535	-0.577367743328	0
17.566481510048	-0.529340016102	0
26.5	0	0
16.637148248735	-0.188015807345	0
18.183918302467	-0.396443618316	0
27.159348252167	-0.205297590358	0
27.357530053515	-0.198815038154	0
27.25	0	0
15.060354649709	-1.112587998155	0
15.51532665618	-1.043792149387	0
15.178150912169	-0.713100616689	0
10.051363365948	-0.719159376333	0
14.661248691948	-0.27865166374	0
14.75	0	0
27.868836823455	-0.217301839861	0
31	0	0
30.75	0	0
-0.020273477909	-1.415389842481	0
1.054972770973	-1.487485199502	0
0.512583677021	-1.0438154777	0
0.75	0	0
2.361419414365	-0.794513604096	0
29.890297721653	-0.2433406165	0
30.473599299501	-0.238575611274	0
30.5	0	0
30.660802173874	-0.161931182737	0
28.783812899585	-0.467926883932	0
4.937022539393	-0.72440615077	0
6.696914540879	-0.380672503721	0
7.434272221796	-0.695675918868	0
15.339606453815	-0.166204802571	0
15.281953315711	-0.388999642276	0
11.893544445085	-0.335972898148	0
12	0	0
9.753796445798	-0.478866225926	0
7.720012958977	-0.638314519759	0
21.871398197179	-0.313006985103	0
21.615176662754	-0.521922347305	0
21.856785525528	-0.665128848631	0
20.792152536902	-0.448319093295	0
21.109577821412	-0.527879642114	0
21.360297691811	-0.734200004244	0
15.547854961707	-0.580173571081	0
24.496861814148	-0.467031445896	0
25.067351422649	-0.463427753535	0
24.81263825963	-0.684738154192	0
22.865620821195	-0.218348593093	0
23.443705587002	-0.773171720633	0
27.277617447467	-0.489224417775	0
27.863714790534	-0.471681393437	0
26.239117668995	-0.863279739365	0
29.896797054636	-0.547765129844	0
29.612773839625	-0.699757135752	0
29.867172666547	-0.87444432816	0
29.610354212963	-1.521444655905	0
29.59548165142	-1.071765512911	0
29.115129171034	-1.220660174798	0
31.345359428525	-0.458952144926	0
31.144859415042	-0.241304201582	0
15.919565295974	-0.746550096707	0
16.063006820294	-1.289595303187	0
16.5	0	0
14.900855313538	-0.178071167744	0
14.161016743654	-0.72559708689	0
19.011498044983	-0.834202892304	0
16.760433281999	-1.263698818643	0
17.280361389946	-0.931704507314	0
-0.627742252535	-0.296285438777	0
-1	0	0
-1	-0.5	0
0.625738545692	-0.228405936136	0
0.5	0	0
3.313957665883	-0.865581185485	0
3.619156095452	-0.800599314657	0
[...]
CELL_DATA 986
SCALARS 20.00_0.49 double 1
LOOKUP_TABLE default
10.174274845169 9.0388384958909 8.2138251838787 8.6345173683757 7.2640355371148 9.7459113689303 8.7177855259911 6.0496695420184 10.344815732214 8.6486449872893 8.5778585909476 10.559735982907 9.6920507560115 10.688986975052 10.446762687136 8.7547173392507 4.8693003359475 8.1892133907765 11.151736460223 12.165082957583 10.075842381271 9.8107438031318 11.70308342817 10.293990392928 9.9546408740742 9.7726989756474 9.9342001138045 6.4419837860529 9.9903602246207 10.130661611879 9.1755908946991 9.9810832436512 9.5726114080762 11.717736722948 8.946874827859 9.7883171855331 9.9334183882966 9.3952179717221 6.8585812598445 9.266464079144 12.713721971952 8.6098727469236 10.359779772928 5.2785348874641 10.111207487408 9.8420788167376 7.1360006519043 7.6891305072861 10.426091346617 8.9004096655571 9.7537080973465 8.8936101199652 7.5188646455553 9.8615036669568 7.3330819936101 10.742212606244 5.4120522163781 10.086599284291 9.5562740105136 9.033327984177 10.01607393709 9.0559373187506 10.620413502774 11.079239614246 10.145587457634 10.335193287096 8.2477808654691 8.0978948661512 10.387215368587 9.2219477935841 10.724046627792 10.911203075772 10.259827543402 10.464003391903 9.6104689227678 7.560228852622 10.082202630001 10.020055534743 10.187174842146 9.8497254276504 9.4625518466331 7.7930359015662 11.089990020872 8.9227258543897 10.676081842629 11.957512693501 9.5014320177568 10.629189695168 10.472411261021 9.2148962860785 10.301980274397 10.428618879938 8.6590821097348 9.4400029160784 9.4324070988339 11.34755905631 11.105709401855 11.295939056185 10.469471753945 11.201857180085 9.9012644820548 11.651817787928 9.5197857947794 9.7287607965901 8.7372533947529 7.784387174275 9.8556640030035 9.0970467854258 8.8284137468945 9.7732553630066 9.1857220280635 9.9836364203414 9.6826630972748 9.7811395783976 9.6516742714263 13.049087395443 9.2541670116312 10.913083988462 8.9085307659588 9.992976691975 7.4910369351467 11.426223726424 8.1997315260018 8.803467205217 9.6313770734887 10.89270084749 8.7955951396306 8.9631224350376 10.48869178781 10.962844912845 8.8749086506601 10.540496468429 10.244881489493 10.801789150871 7.8361031722092 9.6091618075005 9.1144274452059 10.321322836 9.0977035402713 8.4258115418786 10.55448864998 8.7152526392164 10.084298846818 10.689253745321 14.454101514159 11.842922202745 10.261175136175 7.122911147529 9.3756447378537 7.9755388695919 9.8666252830359 10.915466301596 9.3807213222303 9.5678031004949 9.2110901726089 9.9640296173501 11.04770716474 9.8766980764369 9.2753069677179 8.757324528579 11.120818567774 9.901673082968 9.8601539242197 11.382511936107 10.656128580887 10.097118401405 6.0534872783848 8.7182852833644 11.79680403556 8.6633899215673 10.981256919615 10.395839960449 6.1176321321751 8.7423629628588 9.6924941933945 8.9737561286946 11.245741239859 11.169462593661 8.5682221732883 8.816187956704 11.561486498381 9.5440324227581 10.056852724217 6.8650475605502 6.9477060926754 11.40610499563 10.123545193101 10.614661233001 8.7308876935132 7.465070362329 8.1059967037469 6.1144203956942 9.2891861007977 7.1017117088952 9.6396773100954 10.119818936626 7.1012942087836 9.3568243350458 10.631430745119 9.3133306619372 9.938798930398 8.9687663042953 11.066606985989 10.046006032137 9.74346658687 8.0007160572911 9.785533938179 9.3962440966224 9.9295510425989 10.57048654731 8.7131810390834 9.2478533216691 8.9995252055922 9.283460410731 9.6706343289184 9.7549809155944 7.4515003781367 9.4615161753631 6.4493953459285 9.1390690802721 9.36525832116 10.845208410566 9.8100224749325 11.596289128115 8.9931480276698 9.9308861318366 9.9140852214883 9.3680976724904 8.5543958113601 10.82428380281 9.8766180073233 4.2463364597596 8.9080850711745 9.1580107436505 10.064984779611 10.132248542221 9.5834129444356 6.6316182198109 9.7668119357463 8.312293867625 8.6358393223444 8.1392962578897 10.242919310062 9.7762530846585 9.8038102824538 9.8758460531436 10.140765210839 9.6217889686802 8.7738828408589 8.6564539304871 8.3762670840668 9.4673568882984 7.3037236041474 9.3305598339938 9.7891333656125 8.7919005029821 10.421662946174 9.2699214992555 11.020167251813 7.5108813454446 9.5895069954223 9.2442452013714 10.311828886953 9.611676179972 9.3318563944663 11.182946177337 9.0711126778398 10.889937067616 8.6241889580355 9.1136960996869 9.2880443573932 9.4914832119576 9.5522388084335 9.2174833423898 10.04055752184 10.509225649621 9.9298803660898 10.555897964822 10.070886732288 9.9808957581182 8.4467990979697 10.237015971616 12.011113831784 10.931764507455 7.3799304648405 11.292382678554 9.5843397167865 10.84820696422 11.614297516181 9.8992113235452 8.9820801173058 8.3368511719022 8.2685879617321 11.25233048212 9.6692471115074 9.4515180630439 9.9034798435959 10.313617658463 9.715847523757 11.137036517025 8.3769284005584 11.791989163992 10.997849422897 9.4638894237745 9.9266124646298 8.0546504352983 9.1831357536501 9.4940353045576 9.1601681670316 9.8713682775577 9.1914073510993 10.290742256185 8.8607601562207 9.6188331737399 8.9870294311362 8.1743630239093 10.124115549719 7.5682505653945 8.9928901279618 9.9244519141461 8.4317497235417 9.3531980988295 9.5641858934317 9.3352673538433 8.7494564537829 8.5738556882022 11.773795547038 7.3529909672648 7.1473647193261 5.2585583881168 8.9637902369944 7.9837828473403 9.128311309909 9.1676131088217 8.6774766663235 9.2238028495033 9.3432501094955 10.115889288988 8.2627814059931 10.649127686496 6.7221826906191 8.776357238046 11.220746477988 9.7914384666209 10.1070692025 9.292388613469 9.6029137219435 9.0655773470897 9.6409981267159 9.2801701764759 9.4317376517788 6.9349011995919 9.3483192520807 7.1289280320338 10.094976637845 6.7340262225144 5.97883361456 7.8496835317764 12.602077528726 8.9779422748478 9.6330110686278 6.1947386370022 7.1366187793575 8.7383167027755 10.062822013252 7.4671716315288 6.4414261289553 6.3732953786087 7.0302863544443 10.217744775212 10.682920357563 9.0607625410682 7.8857340289268 7.1967871522017 8.1946154689633 9.7850796301225 7.9642211009559 10.516344927787 9.6435971579591 7.6694808724185 5.7455502834845 9.0836402174451 9.5313239241981 10.792528839219 10.804358718902 10.280732505231 9.1506135563279 10.654428411094 7.4387482927467 11.678878477654 8.9355904060233 8.4243224146228 7.6774773449331 9.3843297486139 8.4004308312762 10.905569120997 8.9572331756364 8.518307377306 9.7971416680971 9.0369651996278 10.908782953567 10.464002361347 9.1432890984299 9.427969980517 6.7943200483549 10.799041752239 7.509803817167 9.9846434057304 9.4019336525038 10.122960696447 9.3423712966636 9.4641638836221 9.3957845316306 7.9868447533492 9.3556916384113 9.147469888194 7.9717133330872 7.3822754387064 6.6107658001811 8.4436879940081 6.2856981853445 10.465233164505 9.4194296340417 7.8523669218315 7.7512837277147 9.4033768028595 7.5762843598842 7.0673688665079 8.2052478569948 6.8985539505976 7.5556567014954 10.650700422854 9.2985866657828 9.3667589439389 10.246149548853 10.060081979017 5.8233638854382 8.2938801934948 5.4173106390858 8.7113881977644 5.8110401285496 7.7032016391428 9.7480057505165 9.1029605450561 6.7152037023586 9.6077846825808 4.8553273284621 9.9538373805296 7.8284488894498 8.4783482914799 10.665723315611 10.58495227302 9.5773808295945 9.3569228824944 5.5972824865982 4.2448717101136 8.6757029458779 9.4402346902899 7.5307444982927 9.1637506963616 7.5858520889501 9.5798883627697 8.3645233960672 11.099510990294 8.5374694110733 5.3244922468117 6.153728511177 8.7612307684654 6.3038577222715 5.3257386186182 6.6668229995268 9.2231730710288 6.9198637919924 5.4190402284384 4.578612341601 10.050503361488 8.5817104347535 8.9015767572431 8.5286876127718 6.0450513377338 8.0117630599242 6.4059366160932 6.6231955234779 10.14354029871 8.3891762726157 7.9713787228724 8.286775431289 10.151707901354 7.1331258633456 9.2353848070878 5.1279578442911 8.1672544596913 10.719192173726 10.709164985252 8.5480160268039 6.682031153012 5.0638720697414 3.6711532577758 7.702414531606 10.046510509235 7.5714591219801 7.1530683277866 6.1676308855614 7.1526991068269 7.7602146462664 9.7299503258605 5.5597953900346 8.7796562727839 9.3872936491302 4.2898962786563 8.4425977869887 10.878151053728 10.289872482389 5.8180886646507 7.9497665991318 9.1127842633585 6.8624433865321 6.1420268677687 5.3667663657209 9.8465324393653 9.9334098571906 5.6187712007825 7.9071991355265 8.8935248181849 6.7394326847172 5.8253040524519 5.1597548861159 9.382565013138 8.2718195894749 11.15416742307 7.6623090037534 10.181497060197 8.0384329007297 8.9769471301691 7.2733165486632 10.255554845741 9.4028966382079 8.7334862452722 5.0978647878264 3.0971995090018 10.060956056262 5.9150547906261 9.641768633912 9.2060660158654 5.8319561433517 9.1355107037248 3.7009876589715 7.8662263513073 3.1963847163391 4.358605094229 8.8192336267955 5.8532210696923 12.43430391844 5.3999134231896 10.026916471312 8.9114002869964 5.8207915758508 9.2853760062574 5.1365447178674 6.3496952557858 7.6775822180164 6.647845486415 7.8761601036986 5.7784862414398 7.5734546807189 9.0327791676907 5.4359244555582 4.5226537565778 8.2657031470785 7.3375166028019 10.439138191899 8.356061697538 10.182058757794 7.2980685113697 9.4450978485147 9.1114020523603 6.4749812166835 4.0055821083386 7.8316403937148 6.8683331377307 7.2124231674333 7.1740203956848 10.968998769101 9.6591399453827 5.2577806334901 9.3086641924582 10.145260067125 8.0596351914951 8.2193186785013 7.3626062730584 7.8377822848661 7.0361677543535 4.0567069431226 13.155973264417 3.8460648253532 8.4037658521291 9.7442781071405 10.370649046346 6.6553547826087 7.6381676223387 9.8931561061095 7.8778941245956 7.4573385546652 6.3366157937438 4.9736891668619 4.0077869883817 5.0225698915276 8.0600302519424 9.0734716046885 7.2475543762056 6.0375238038209 7.04572127627 5.6775863495918 10.065345239367 5.4590399910694 10.330393309722 9.5875058749236 3.4264349891692 8.2554418144367 8.7083172353844 9.3710184749125 8.1864988338973 7.1112805101172 5.9757751947635 5.986308334101 5.845243229232 7.3375756140202 9.347064779311 4.0690426599355 4.9664781275444 4.3906589336457 5.615582947158 4.8285320852871 8.7702386818947 6.7259528397811 8.7868398350607 4.4940683888091 4.8604568782912 5.8689314664357 8.404701274407 4.3018475117118 3.8203636130237 6.8484544033013 5.8290713917641 3.2701250579378 5.6564286385085 9.8212543800309 9.0487118156736 6.720718743835 4.5406603844581 5.2369922108613 4.4638497459687 10.227021853828 7.438789370339 7.6735268014082 6.3586546296289 11.481192697783 9.7013920661224 5.208184056317 10.43996475453 5.9109632578364 9.6428432421983 5.1961013880687 8.6135844064913 10.909776496432 7.3003385327061 9.7961276558674 8.542965278781 10.889951930577 10.52996044844 11.152653430673 8.6247063762653 10.839582986284 4.1217110225144 5.5772812871923 9.2926258795676 3.976023010114 9.5164399232267 6.6474101604344 6.3087406090998 6.193290419237 7.3055074358012 5.5146592549772 4.8933529014298 4.8007819250478 4.9185856171659 5.0892143989248 9.1017190071198 10.319393304941 9.8440030772049 9.2731252590504 3.5603355973071 2.8860824658289 5.6346925701815 6.1507098823828 6.3759799672242 5.3841931227972 5.9881811491203 5.045590207267 6.4297735888762 6.876927334301 6.7506477563433 6.5646611789712 6.7056078030521 5.8577586079731 6.2168179710402 4.3991887070688 10.545828538716 9.8398685993058 4.3467760873664 3.1451433831204 3.209491071697 3.0291395244195 3.8684719672568 7.0466342372935 6.1389115038247 7.9643431697781 6.5096974177921 9.8765470770794 10.150028503891 3.8534198708441 4.1954670061852 8.7712407055732 5.597838035002 3.664365290531 3.7258740386214 5.1119372044712 7.4384299404086 9.9030008179583 7.32255164126 6.9805496511369 5.8663015138324 5.4569072956954 10.003104775207 4.4413578979031 11.037237628016 10.677298304615 5.8621556459056 4.0480271955197 8.6636027799892 8.7762781737213 5.2903843285357 4.5112728992251 4.38810167504 6.9048643457754 3.4622322425481 5.2622495536578 3.479571563695 3.5463162911425 3.7867032643517 9.5135753242872 4.8382155037429 5.5348069130438 4.660632160991 5.1649967726754 4.4003027005161 5.9000370694051 10.18810143769 3.4088261662225 6.0649978838295 3.00579340823 3.5875596909173 5.0680068630025 4.2940136318636 3.6817752078289 3.3571033231768 3.9174105811484 3.7915042649847 5.1441067923513 3.4499730602155 10.119930657842 5.0406125987033 3.4461673384654 3.8951775730825 4.6586469745466 4.6799365148832 6.9923364406244 6.7424219589972 12.531215476138 7.8070952783215 5.9199244371811 6.9962031842397 4.9656671340967 6.3758011310785 9.3042693730106 7.655451694518 4.9430653040566 5.2877424562074 5.324849488159 11.133214910781 8.9222337755879 3.2926130664621 4.3399707932353 4.4969910018594 4.3211524524716 4.4148333668254 3.8798880112408 4.0403778624699 3.612729820353 4.5577161910759 3.4951237874054 4.5275618553446 4.1533791086487 10.772909027429 4.2805902416144 5.5471065834424 5.0144867431869 10.202740239975 7.7295198186706 3.2612073284833 3.169738976414 3.1382971159162 4.2274699675778 4.9019120205606 11.352785337528 3.6000516296117 3.9537293352829 4.2771040297482 3.1460786447847 3.1945708130808 4.9450316829564 3.6077771189908 3.2726049849042 3.9340379403175 3.7554117602971 4.001642081883 3.4319872503497 5.1305733498057 3.3459204514378 3.5688314281054 4.1496621567545 3.1111853428841 3.02971847204 3.5651736409095 3.0722045578888 3.2730615323654 3.2104441498467 3.4421355494708 3.2128295738331 4.3396376078796 3.82334003158 5.2875775931739 5.7153183239527 3.0139980657547 2.9517319022389 3.0422373685393 3.6112439468483 2.9264778615078 3.0274076724465 3.0669914442112 3.043935777803 3.4321536069245 3.7963218097012 3.255745084905 3.2806135791381 3.1288427692075 3.4085501060281 3.606480015598 3.6704812320301 3.208656138527 3.214846654086 3.1370166643828 2.9176544681924 3.0747174613582 3.1469371209341 3.2691170865049 3.2589511767539 3.2978319092014 2.9679743135932 3.3733104921991 2.9199127401345 2.7945334877827 3.1454013562121 3.8217439989307 3.0137773796387 2.8596344753821 3.0334798097858 3.120189518538 3.2558553528891 3.162505699987 3.329450026023 3.1480250117424 3.2061000014808 3.1283992539216 2.9291504020735 3.2693408686276 3.042931256313 3.0204967242807 3.0233147373709 4.2309955616791 3.5001751956885 3.1334592198109 3.1311870053824 3.2421177577572 2.9883074312236 4.2741110413987 2.9711027391604 3.234476611793 2.9890772049278 2.998385070625 3.1144051579025 3.0210208085428 3.6782091281359 3.7711107394848 3.1708706230947 2.9747681973157 3.1350959120273 2.9770616008625 3.119812366041 3.2893752851615 5.0465373742407 3.5027238176646 3.5269136366875 2.9534619399995 3.8488448696819 3.1488738773754 3.9740791477475 3.2765457419779 3.6677596865982 3.0319169208886 3.4137812811788 4.3133260146198 3.0970489145396 3.9379904724426 3.9544092684813 3.5042617841982 3.2898235788726 3.3753940471703 3.9739666588708 3.5327863220192 4.0820153537402 3.5234413865808 3.3576623261812 3.4914068563026 3.1203052392444 3.4581038010905 3.3039340245074 4.0554565622261 4.0416246992221 3.3786541552721 3.8019423196949 3.9919425962595 4.1582979033422 5.3563429585461 4.4250524863748 3.7980196811664 3.0880855103762 3.8124660825396 3.815986759568 3.2567019611529 3.3545911587733 3.2364699945233 3.9954329600734 3.5266619063394 3.8169419427008 3.3745196585365 3.9484267667633 3.8404300524699 4.2058436432813 4.1324894188047 4.0915121990848 4.7136765570218 4.2861678811231 4.1457402312816 4.1448638259383 4.4836907272955 4.6511907362891 4.4158393895507 4.2344120137861 4.0332527361237 3.6292071131425 4.7274195545951 3.9142115188501 3.5220708796507 3.9325112943156 4.1115057118228 4.1606906847725 4.1519237619217 4.150197610317 3.9939435544822 4.2896776637572 4.6065853509548 4.3644615162195 4.3317280065192 4.6297294500855 4.4782096038516 
SCALARS 40.00_0.38 double 1
LOOKUP_TABLE default