# vtk DataFile Version 3.0
d-2__ created by libgimli-v1.1.0
ASCII
DATASET UNSTRUCTURED_GRID
POINTS 570 double
14.5	0	0
14.25	0	0
14.386963504964	-0.201738469428	0
22.399299936458	-0.310870122736	0
22.129824335287	-0.229914148082	0
22.126320781198	-0.518791771445	0
8.472303742627	-0.591754876635	0
8.780507935475	-0.76092407121	0
8.82173151259	-0.349253271447	0
18.663262297679	-0.667179415955	0
18.934786529245	-0.453308328646	0
18.636898038907	-0.29588182328	0
4.016904362632	-0.85330676142	0
4.076038737616	-0.331410355179	0
3.713721571226	-0.470767763626	0
1.89953779852	-0.269343012166	0
1.633800503821	-0.203067612233	0
1.644492760828	-0.441295523531	0
4.368408037607	-0.250833874131	0
4.337474161742	-0.544420985055	0
4.67745607622	-0.378433532554	0
1.406172533733	-0.772361039307	0
1.913288206557	-1.218576310882	0
1.90687689783	-0.651895683444	0
2.5	0	0
2.25	0	0
2.347047126858	-0.185539804102	0
1.374000926997	-0.300418771701	0
1.25	0	0
1.114902662369	-0.201591505098	0
1.067401015567	-0.470108640981	0
5.75	0	0
5.699780065382	-0.324747799653	0
5.924584257371	-0.172748359932	0
0.883560935405	-0.231136840652	0
1	0	0
9	0	0
9.117836368049	-0.253904480787	0
2.625577516194	-0.346770599322	0
17.859079774019	-0.943547525024	0
17.535029634209	-1.703182852412	0
18.338018094476	-1.366069799339	0
19.932263871771	-0.826489183604	0
19.881635677668	-0.346204516721	0
19.622287080959	-0.573770479943	0
1.5	0	0
1.75	0	0
23.25	0	0
23	0	0
23.109690227386	-0.220340974338	0
2.75	0	0
2.142562771237	-0.172460438312	0
2	0	0
23.332392704446	-0.202507275941	0
23.5	0	0
19	0	0
18.75	0	0
18.888143078348	-0.195773419804	0
2.90152418742	-0.185685383897	0
7.612175045312	-0.180627982114	0
7.527150943175	-0.401430797998	0
7.881917737402	-0.30462800112	0
25.630635194756	-0.512020961038	0
25.243766894324	-0.80097755811	0
25.758031115142	-0.952821630144	0
3	0	0
28.84859809239	-0.201276387394	0
29	0	0
28.75	0	0
4	0	0
3.835807353334	-0.199536243303	0
3.106904732949	-0.178783649348	0
29.25	0	0
29.092446172194	-0.305987136665	0
13.5	0	0
13.667851890428	-0.185102765244	0
13.75	0	0
3.75	0	0
14.407363653886	-0.441423674912	0
14.125469935998	-0.279652141152	0
4.25	0	0
5.061980176718	-0.407989246181	0
5.335512032876	-0.269401530321	0
5.113979852892	-0.173834924157	0
11.882046000841	-0.812345557852	0
12.478640631525	-1.146569360669	0
12.244190771573	-0.565936619511	0
3.633270844505	-0.195395238442	0
14	0	0
18.378272976509	-0.514977451159	0
5.5	0	0
9.619519097921	-1.16461851757	0
10.030576753886	-1.587265312651	0
9.961661342999	-1.070235523667	0
5.25	0	0
5	0	0
13.157975569138	-0.830425793913	0
13.83833027638	-1.238601004239	0
13.671302359608	-0.710707966059	0
11.325917093147	-0.8366783502	0
11.612143285947	-0.506264798476	0
6	0	0
7	0	0
6.83842404292	-0.188923754932	0
7.11236984822	-0.391746146843	0
6.631875629497	-0.169178192832	0
6.75	0	0
3.21002197083	-0.595267231049	0
3.445510026908	-0.608065324465	0
3.362318141622	-0.306501255187	0
6.120159502895	-0.164221934939	0
4.538525595924	-0.906226152762	0
13.233775457127	-1.737244787017	0
4.5	0	0
16.138065841822	-0.472802517973	0
16.126746690205	-0.221608117926	0
15.859319180798	-0.326402762318	0
26.080401003391	-0.227842452866	0
26.25	0	0
26	0	0
3.019224421113	-0.401469974918	0
8.234901607028	-0.35771789179	0
8.518285578354	-0.242327591839	0
8.328777073389	-0.153008859619	0
7.25	0	0
7.400656881666	-0.195280611572	0
7.5	0	0
5.385509485898	-0.709154879541	0
5.948697127931	-0.745234910621	0
8.75	0	0
8.5	0	0
8.25	0	0
2.214249105773	-0.404278959534	0
2.896561357202	-0.792481120253	0
9.25	0	0
4.920911116561	-0.192028847294	0
9.651670336652	-0.200847798694	0
9.849824537955	-0.19917205686	0
9.75	0	0
10.095049354068	-0.315754204277	0
10	0	0
3.25	0	0
6.738406513564	-0.710129601907	0
7.121614580011	-0.943026074581	0
11.345829942703	-0.314788260019	0
11.25	0	0
11.104427225455	-0.188863495516	0
6.052412255932	-0.372556729023	0
6.373371846535	-0.274163514827	0
10.25	0	0
10.380281579003	-0.241092027437	0
10.5	0	0
10.75	0	0
10.909079077441	-0.189427130481	0
11	0	0
6.25	0	0
6.5	0	0
4.75	0	0
3.5	0	0
10.672815698565	-0.318467932684	0
10.772487906066	-0.787092734739	0
11.020900486567	-0.439266778492	0
8	0	0
7.75	0	0
11.5	0	0
11.619450354737	-0.231443672836	0
11.75	0	0
8.139317726831	-0.163309591658	0
12.25	0	0
12.158949464947	-0.235415698299	0
12.412455385193	-0.275030800337	0
12.929165084344	-0.221336108042	0
12.686337592177	-0.258437422252	0
12.900449535554	-0.462768612232	0
12.5	0	0
9.405755833308	-0.325979504745	0
9.111697192308	-0.594170467817	0
9.457257345083	-0.753685223931	0
18.101369157139	-0.618560521812	0
18.336839281097	-0.861122419318	0
10.385948631267	-0.570640149046	0
9.5	0	0
13.411260455969	-0.342646276848	0
12.643108055516	-0.590179775368	0
13.137744715761	-0.195204172124	0
13	0	0
21.25	0	0
21.358341816502	-0.326561417551	0
21.5	0	0
13.816492716597	-0.40394453634	0
20.25	0	0
20.423452336785	-0.313445603959	0
20.5	0	0
17.789350393153	-0.390447709085	0
17.987794057246	-0.401472255242	0
17.881276545163	-0.206424156589	0
19.564465692234	-0.270867872644	0
19.290725118801	-0.49926248604	0
16.392319441256	-0.29915360323	0
19.443730892406	-0.923508713428	0
20.457987075478	-0.803203365193	0
20.167450719332	-0.505159975143	0
0.103762538371	-0.253013629949	0
0.267057015134	-0.483604909932	0
0.374713194419	-0.2320817565	0
13.25	0	0
17.415572543912	-0.230682214253	0
17.5	0	0
17.25	0	0
18.108153655084	-0.208141099276	0
18.25	0	0
18	0	0
15.75	0	0
15.544586046819	-0.246453491997	0
15.122708481244	-0.193620038745	0
15.25	0	0
15	0	0
19.75	0	0
24.149237782749	-0.319013340846	0
23.842766599446	-0.577371105011	0
24.183995039967	-0.73159476451	0
13.871646321742	-0.17394291424	0
23.862588150518	-0.245417872715	0
16.84024277193	-0.203626765466	0
16.704049384397	-0.435508179396	0
17.112673188265	-0.38804641709	0
24.75	0	0
24.832880292394	-0.290571430318	0
25	0	0
16.40158555625	-0.755912194683	0
16.850299990829	-0.757941865332	0
17.75	0	0
23.567455674596	-0.325197491724	0
16.25	0	0
16	0	0
22.645812614293	-0.197864648876	0
22.75	0	0
22.5	0	0
16.75	0	0
17	0	0
24	0	0
26.914424714815	-0.337869958787	0
26.621963281699	-0.624626679172	0
26.977877660759	-0.778408201088	0
26.622424322919	-0.264588309935	0
19.34462271879	-0.199329831305	0
19.25	0	0
19.118057075065	-0.225686869553	0
19.5	0	0
26.75	0	0
27	0	0
27.5	0	0
27.604422363523	-0.298869962794	0
27.75	0	0
17.650384190064	-0.227839036584	0
18.343198956448	-0.236734208617	0
18.5	0	0
24.25	0	0
20.143897114391	-0.233773711865	0
25.5	0	0
25.25	0	0
25.344389320279	-0.31693710653	0
21.059546193318	-0.24845941382	0
20	0	0
25.842927934822	-0.248287716678	0
25.75	0	0
25.613904645132	-0.216025146631	0
21	0	0
11.763551406169	-1.481607093928	0
30.981104050195	-0.5526690913	0
30.873880294509	-0.217692518774	0
30.706626759758	-0.34945139905	0
20.75	0	0
20.85240828135	-0.178025243856	0
23.75	0	0
20.66289882074	-0.189089155251	0
30.204950808504	-0.791758966623	0
30.715535843381	-1.149995259266	0
30.543724897762	-0.572259098027	0
30	0	0
30.180216671806	-0.343473673313	0
30.25	0	0
23.229584388362	-0.458653998547	0
29.5	0	0
29.623391954444	-0.322069028408	0
29.75	0	0
21.618913855927	-0.233585823579	0
21.75	0	0
29.348490380579	-0.521100538161	0
29.36294710412	-0.230601226356	0
22	0	0
22.25	0	0
28.25	0	0
28	0	0
28.129259193923	-0.314252106503	0
28.44374413871	-0.484576386004	0
28.100199615755	-0.812038297775	0
28.649230646972	-0.871769248311	0
28.618403654115	-0.227691192115	0
28.5	0	0
28.387848605749	-0.205892081491	0
29.054768525933	-0.708603081552	0
29.344906532636	-0.846887322836	0
26.327430876245	-0.35930637997	0
10.349120516034	-1.04150119828	0
10.894920134778	-1.514321070539	0
24.59640839418	-0.191760546865	0
12.75	0	0
24.5	0	0
13.102881121377	-0.411296235356	0
25.099388239946	-0.214879887129	0
25.97986022697	-0.52841375324	0
24.398993403151	-0.196312410538	0
17.860840746535	-0.577367743328	0
17.566481510048	-0.529340016102	0
26.5	0	0
16.637148248735	-0.188015807345	0
18.183918302467	-0.396443618316	0
27.159348252167	-0.205297590358	0
27.357530053515	-0.198815038154	0
27.25	0	0
15.060354649709	-1.112587998155	0
15.51532665618	-1.043792149387	0
15.178150912169	-0.713100616689	0
10.051363365948	-0.719159376333	0
14.661248691948	-0.27865166374	0
14.75	0	0
27.868836823455	-0.217301839861	0
31	0	0
30.75	0	0
-0.020273477909	-1.415389842481	0
1.054972770973	-1.487485199502	0
0.512583677021	-1.0438154777	0
0.75	0	0
2.361419414365	-0.794513604096	0
29.890297721653	-0.2433406165	0
30.473599299501	-0.238575611274	0
30.5	0	0
30.660802173874	-0.161931182737	0
28.783812899585	-0.467926883932	0
4.937022539393	-0.72440615077	0
6.696914540879	-0.380672503721	0
7.434272221796	-0.695675918868	0
15.339606453815	-0.166204802571	0
15.281953315711	-0.388999642276	0
11.893544445085	-0.335972898148	0
12	0	0
9.753796445798	-0.478866225926	0
7.720012958977	-0.638314519759	0
21.871398197179	-0.313006985103	0
21.615176662754	-0.521922347305	0
21.856785525528	-0.665128848631	0
20.792152536902	-0.448319093295	0
21.109577821412	-0.527879642114	0
21.360297691811	-0.734200004244	0
15.547854961707	-0.580173571081	0
24.496861814148	-0.467031445896	0
25.067351422649	-0.463427753535	0
24.81263825963	-0.684738154192	0
22.865620821195	-0.218348593093	0
23.443705587002	-0.773171720633	0
27.277617447467	-0.489224417775	0
27.863714790534	-0.471681393437	0
26.239117668995	-0.863279739365	0
29.896797054636	-0.547765129844	0
29.612773839625	-0.699757135752	0
29.867172666547	-0.87444432816	0
29.610354212963	-1.521444655905	0
29.59548165142	-1.071765512911	0
29.115129171034	-1.220660174798	0
31.345359428525	-0.458952144926	0
31.144859415042	-0.241304201582	0
15.919565295974	-0.746550096707	0
16.063006820294	-1.289595303187	0
16.5	0	0
14.900855313538	-0.178071167744	0
14.161016743654	-0.72559708689	0
19.011498044983	-0.834202892304	0
16.760433281999	-1.263698818643	0
17.280361389946	-0.931704507314	0
-0.627742252535	-0.296285438777	0
-1	0	0
-1	-0.5	0
0.625738545692	-0.228405936136	0
0.5	0	0
3.313957665883	-0.865581185485	0
3.619156095452	-0.800599314657	0
[...]
CELL_DATA 986
SCALARS 20.00_0.24 double 1
LOOKUP_TABLE default
9.0049611556512 8.0857756217121 6.3434438761337 7.0570848468604 5.7735875930829 7.8508270801031 7.2097062026763 4.667752471809 8.8368689341558 8.1538884102803 7.6422172092352 9.1390745229524 8.7728233801777 9.4581651188185 8.7219741144914 8.4197610273867 4.0347934812183 6.7177693408823 9.8196891729144 10.24239192851 8.7881341628546 8.6559203597174 9.4211631268721 9.003345585517 9.2811548977793 8.5756084706143 8.0905927266025 5.5058576175753 9.2929027948952 8.6971870639239 8.3027090048293 8.9878011670337 8.0122930853784 9.7883910581197 8.3968437396379 8.0465966686095 8.7107168953803 7.9484809491403 5.5388123844358 8.4085416697851 10.673718800032 6.9731880983296 8.5881322927863 4.3167803079341 8.5985182164319 8.5580121910249 5.6160586100223 6.1337824680212 9.5405693867836 8.0848126701349 8.7649338454158 7.993184520172 6.0378324266613 9.1500073084738 5.7345794171362 9.0603340798628 4.4168079859698 9.2094692155047 8.2749764569875 8.3029024385933 9.3923201563204 7.5878353754591 8.7495127421833 9.3633940063203 8.9955930966839 9.1966367495688 6.3272216060268 6.6251643335085 8.9994497977568 7.9584004250736 9.4855171212093 8.9525545114021 8.9734192874267 8.8067930068037 8.2036805854273 6.0350764528853 8.9627579131015 8.6994890392953 9.0477629025162 8.7882108193121 8.4205186906623 6.0136242940299 9.0846155504845 8.110567221477 9.6588421337965 10.401686424262 8.4572320837331 9.4315222307512 9.4146021646149 8.3943584418865 8.852586822211 9.4723600328439 8.0034948945427 8.7158629324386 7.5441306288344 9.4211480987351 9.6721127504034 9.4901016355292 8.6764992424831 9.0129739070278 8.6327845778948 10.315709221643 8.1900733883284 8.6739095093577 6.9921121892878 6.2561858440325 8.1073442089078 8.2141797693302 6.9876070365897 8.6846705412119 7.6860254399351 8.9375051843339 8.0610049259009 9.4676570453519 7.6906913377712 11.097260642714 8.1432485925789 9.2138374401371 7.481716600627 8.3956262288094 6.1130593271592 9.7078382208505 6.841664691445 7.3171052962821 8.0932843522412 9.0594692752151 7.0706098916448 7.7648719673013 9.2080460160473 9.148462281313 8.3669652129657 10.03952768284 9.7767842672874 8.8692791640381 6.3701872091378 8.2646240920014 7.633493836156 8.9110345445393 8.9285065653829 6.8923625560246 9.6352908214824 7.3877556597362 9.4119019257469 9.4654452424065 11.477400427652 9.9358983419814 9.0006296545168 5.891628301615 8.128206591154 7.0536749735216 9.1194707618001 10.363766207565 8.4421643673798 8.8336713276274 8.3263762572485 8.806870258107 9.7937598982396 8.7797615775429 8.8852981350841 8.1872997715593 9.6135209033961 8.3384855970732 9.2497866596877 9.9696228607188 8.7808037398435 9.5380912660944 4.8058715723912 7.369928958034 11.25490502436 8.6369124676034 10.382844662217 8.4184358989035 4.9452539757483 7.6875446872181 8.3837077462196 8.0141477672606 10.168572041661 10.154570400929 7.5009265002726 8.1037966140625 9.9791104556996 8.150608187108 8.9151122642411 5.7248889030314 5.6345178547417 9.8584664776622 8.6813773375457 9.442025749561 7.5681594259226 6.0628918819104 7.2031094519627 4.8765710053076 8.3953388120612 5.731387482485 9.1164396510152 8.8209844591862 5.6866908743855 8.5885932948745 9.9391558453698 7.5998391591364 9.0795945833701 7.8642838399094 9.8172538740525 9.3076258448775 8.4443183866307 6.5593382808562 8.858586170334 8.254715444709 8.7883694227958 8.3038308521347 7.8605524878064 8.3004477483268 8.9440453230685 8.0326575363029 8.6666251088326 8.8735598390769 5.8762682470542 8.2940603826313 5.1628169387471 8.4475718610313 8.4155303883014 9.3019601505929 8.9841192052433 10.186731847379 8.3177245481499 8.6598922799604 8.348135701346 9.0879630270391 6.6911460845176 9.0897889309377 8.9946074986002 3.6607824567348 8.2629737302529 8.0977615376488 8.7868785653761 8.4598136795189 7.8664831769641 5.2294790348883 8.8671674325471 6.6639258198406 7.6294032867767 6.9376066766064 8.7596937737581 8.4364137048997 8.9375546421764 8.7928096318277 9.1180209619144 8.6726317485615 7.2413672993313 7.6859167634425 7.1503934567192 8.494582123561 5.8277473054913 7.6842403392447 8.397025634158 7.6667063628173 9.060441585522 7.6991609914108 9.0066899499024 5.9410578657045 8.3245934652741 8.3227773146941 8.9052258084577 8.177515413414 7.8318536253919 9.3969955635785 7.311688855563 8.8218236712895 7.9279045592554 7.8210001204955 7.3536905558355 7.6375139645358 8.6507679181697 8.4793377070898 8.4197133188013 8.6966340386289 8.9799835769465 9.3216839644318 8.2861159519207 8.7562048434494 6.6496703841249 8.8269796177083 9.6503362542091 9.2661969788956 5.8745453182218 9.7642201059529 8.059149044689 9.1961562027927 10.249026932577 8.5356273104154 7.1969560844805 6.5084685733699 6.9723864948101 9.4471155059362 8.3986753396048 9.4603978938676 8.5634251259884 9.5167880354795 9.9328446585001 9.9079668985743 7.0082456033563 10.886765578675 9.5136138321056 8.0307410063942 7.9810018827192 6.8873279778498 8.4245796870519 8.933158997899 8.2068918947049 8.5116231134416 8.0459397274915 8.7396943790887 8.456544931932 8.6332976471135 7.867453811455 6.9389307622102 8.7806622187568 6.3978613112182 7.5600238580247 8.2962323592994 7.4250813637488 8.4707685939066 8.7066818633295 7.973945286426 7.753000623856 7.5331638017161 9.8424274351976 6.3737624731713 5.7473173225204 4.2849257875082 7.3626254257244 6.5710389856043 7.9738147373098 8.1338375604264 7.399231426067 7.5906398579799 7.8511361027373 8.9435998430321 6.7575677069954 9.0152971637319 5.3009532789378 6.8921674525351 10.305965427651 9.3606146074923 8.4317333544147 7.3944640480352 8.9421146587675 8.5938846644947 8.7880595032268 7.7934053511544 8.005296957209 5.5884882817993 7.9436091973343 5.4525740381027 8.7125574093242 5.3842193419033 4.7041626308298 6.4979608694679 8.7278572703361 8.5476781134674 8.6224787308418 4.8879976268205 5.6807779124308 7.0717737408747 8.5956553168539 5.8568089443831 4.9839911065982 4.946625162851 5.4763142165339 8.4903846510586 8.7283700820748 8.1171349100916 6.5405319736271 5.6575804682223 7.0405338742565 8.3644331472877 6.5280250980545 8.8585806709888 7.7275763039009 6.0852695972357 4.709744798401 7.6117630433318 7.6133823369337 9.4515161498981 9.6145071346614 8.8983949757664 7.7314826729843 8.7847552314599 5.8651507195553 9.7897110030794 7.1118242645309 6.8341561553716 6.11297027444 8.0165538469934 6.8441136086119 9.591462881081 7.2064735695174 6.7286464868485 9.4572075119996 7.733777313725 9.4761500515046 9.7648660602702 8.2312792142189 8.2005010199729 5.517512278457 10.479788725505 6.061407963823 8.1861585626875 8.0145949063324 9.1857485445304 8.6449139456707 7.5875914495767 8.5294942462281 6.7746488072464 8.0139714344934 8.569217146056 6.5858702485059 6.1503562882312 5.2798174162271 7.0430342623426 5.3932734307993 8.9468604432221 7.7934421091816 6.4335717737486 6.5229028969567 8.1999641316579 6.1308669103397 6.0723278076693 6.8062653570976 5.9979618190889 6.2031901365808 9.1113794490742 8.0468933810398 8.429032874721 8.0695076401 8.5909488681208 4.675010270587 7.0452305404739 4.4429328575682 7.4463150113979 4.8497738858177 6.3805319877122 8.502226506751 7.8199923514485 5.3184385938122 8.1730271967267 3.961520645969 8.9004766447303 6.4065665175924 7.0683622635379 9.4521006578432 8.8927764904657 8.1033446759854 7.5091978669261 4.5162415609981 3.5209622048108 6.7720547133204 7.9176706116299 6.066225464067 8.0143033820556 5.8700333965139 8.4766836626557 6.7042798694099 9.3495367049352 7.2317808732651 4.1968660904626 4.8467373239147 7.4925235421949 4.9319995672701 4.2526325739847 5.2670651949017 7.6674992700526 5.3725765203487 4.2913084564229 3.6745758981134 8.476575689854 6.8551289378862 7.5945421036029 6.7221213812991 4.7428388006251 6.3411263782105 4.9639532754444 5.2489486485999 8.3931878551561 6.7048227383137 6.5345593880411 6.7383750000435 8.7801856734941 5.8407381524822 7.9346341826362 4.2822402663763 6.7471136035284 10.169617691048 8.9197047433935 7.0250990474984 5.3337344289453 4.0783822398055 3.2087231116538 6.1697673592724 8.493917107978 6.0370087782863 5.4981094246901 4.8754416762391 5.8876609144886 6.6466169361405 8.4809394491855 4.5476802762373 7.5112298987351 8.3088913928633 3.6233542258823 7.1300493577856 10.111379789085 8.6294375298644 4.7244941860266 6.8399281170718 8.017775658868 5.6155608672884 5.0224799189639 4.3758588231277 8.3976395612309 8.4085529763959 4.5242690074614 6.702677903533 7.415703203965 5.4274452282294 4.8178463805207 4.2073670938475 8.0641111151886 7.2514409158868 9.0622743658847 6.2979935298695 8.0313745952178 6.6972356099712 7.848692608361 5.9797242268924 8.0088319447687 7.9694741991981 7.2160774076585 4.1092766932184 2.7934233296971 9.011364712512 4.7232827672752 9.2993536810872 7.6641055726897 4.6559596390213 7.320887638848 3.1652141544446 6.1968551457663 2.8908023401903 3.5673803256143 7.5209592428609 4.5526891866872 9.636535806751 4.3093514821406 9.085326834226 7.5206530532401 4.7366447197384 8.1225678006441 4.0914415894564 4.8947030146172 6.2165936085294 5.2737769561132 6.2424306647634 4.5585836864051 6.0361997653803 7.2606733221139 4.3255023095118 3.6711396260666 6.7852960172035 5.8992072197624 8.9399432294849 6.6609482309132 9.0505510892064 5.6840275035458 7.8186961149395 7.555350182388 5.1887598444551 3.3803186835741 6.5142788637644 5.7371631353041 5.8894848434237 5.9190155653388 10.066689093336 8.2226510984189 4.2236968189646 7.6420535845198 8.4633281031193 6.5488695868755 6.9647323591418 6.1227420895313 6.7123136440691 5.9138691465233 3.3558211132274 9.1773088027035 3.3977159645835 6.7771887518663 8.2099904471858 8.5963681780056 5.185441567653 6.3463105871512 8.503734783355 6.5055899094716 5.9920420366053 5.0271370882524 3.9842114618671 3.3380797738552 3.9695123466456 6.3299690747401 7.5804003776837 5.7819045969026 4.8451532934879 5.6381061376401 4.4463918128613 8.9257910339106 4.4580313026422 9.2983737014676 8.1324470537801 3.0488120167132 6.5655164048955 7.3677274806842 7.8398099003061 6.7995233539104 5.70516846993 4.8492371055343 4.8757445887038 4.7783721981792 5.9483548556788 7.7143519260305 3.3698151763859 3.9818239997601 3.5862078053982 4.393277863483 3.8674102930078 6.8652608173595 5.331106983662 7.0209887963722 3.7662526429648 4.0401836350893 4.7546557832377 6.8339823344102 3.4900386153643 3.2250112615254 5.3988792436871 4.6809687683914 2.9822872514856 4.6045903558782 8.9891549718939 7.4380753545335 5.5808475149124 3.7811100083193 4.2372571710858 3.7176200003605 8.1140844140137 6.0339597664439 6.2266932755274 5.124982318381 9.7018354340759 7.8584550531072 4.2289371040457 8.591163906766 4.7428956932684 7.8772012165131 4.1417356613871 6.9708473528386 8.9894909229431 5.7568442790331 7.8793480847414 6.8404709988306 8.5476719374846 8.6347359034049 9.2289867099661 6.7306635679442 8.6288089821498 3.3796742021188 4.4769310004591 7.8418416252682 3.3020802525564 7.9151767168691 5.5422806034548 5.1794842206719 5.0960539707163 6.0103119652373 4.4930384736692 4.0114831456343 3.9622492244498 4.1622721995916 4.1519355572105 7.2230104950012 9.6967420808478 8.3696908790762 8.0594849707611 3.0875848931499 2.7583713303656 4.5471237074337 4.9299900943225 5.178595018806 4.3852670522134 4.8943218315541 4.2172395574293 5.1973036191073 5.5305152105041 5.4049636158922 5.2415594073998 5.3855390250098 4.7309122651981 4.9865229897666 3.5647441734808 8.2236074413607 7.7006613633844 3.5303730637151 3.1319259658104 3.0544259750362 2.805806734535 3.2285003880867 5.56791487294 5.0344103416313 6.5560446767362 5.0996504310473 8.7238893344604 8.9680498142445 3.310260304665 3.5857467923146 7.3299686096177 4.6757804859098 3.1739929952731 3.156300943938 4.2230852580488 5.9678937678292 9.0525919764394 5.6940622190094 5.3444378833511 4.674388754606 4.4501790569294 9.1064275889842 3.7286615680654 7.8620488063321 9.8767048261685 4.751906108822 3.3604891585602 7.492229779695 7.2878310588999 4.316563174111 3.766089864094 3.6037684447172 5.5066310201119 3.5211529792615 4.2124500519871 2.9994885481034 3.1015080999749 3.3214283091331 8.4162707943098 4.0206819441166 4.3859211845397 3.8691535002702 4.3030978628695 3.6196424464897 4.8518918605875 8.7409635252075 2.9705623919769 4.6821649626373 2.8220664833281 3.1280165548942 4.0610981608307 3.5810250311175 3.1403410628299 3.1193294734847 3.3239439221731 3.265424725881 4.2243565878917 3.0621182169855 8.1554704898472 4.0960864477301 2.9916026709888 3.3374817345974 3.7959415148344 3.7896732536952 5.6350737328844 5.4053318530417 9.130797707145 6.5553042301198 4.8859326704527 5.8239611512549 4.0688014034114 5.1479692495039 7.3267697146697 6.1833426158911 4.1351710385989 4.4138235886441 4.2489402612295 8.1902366172146 6.5321273561804 2.9469944959257 3.6489583986691 3.6896541815717 3.5299948066534 3.5993133410683 3.3114856188647 3.4003057469808 3.2145865753977 3.8105840803746 3.0691407777575 3.8133590111336 3.4793947949505 8.945047850318 3.5974242649258 4.4829124254691 4.1187524308045 9.4878855225818 6.2939502932509 2.9249410875675 2.9226178726098 2.9670464603097 3.572458902637 3.9347423646961 9.7187326567994 3.0994850154355 3.2747111105427 3.5285776822274 2.9716763774955 3.1518801613439 3.9122310151593 3.2998924358957 3.0285534803512 3.4160527279947 3.1764985851466 3.4743456267415 3.1716965617442 4.1643868926939 3.0215183666845 3.0696583282181 3.532704898282 3.1710194335823 2.916835673733 3.1059274739016 2.7633456255442 2.8302566698824 2.8833578420562 3.0544748697992 2.9540351185675 3.6396268571221 3.27368875527 4.2791775611441 4.6295004507562 2.8193383526709 2.770735476554 2.8238467716491 3.588641540372 2.7974532439319 2.7844267904369 2.8354593689023 2.8105888196473 3.0650684908386 3.342090720218 3.1047177000341 3.0819186610513 2.9617386145166 3.3490336211509 3.1962912816364 3.1876077254986 3.0113633283095 3.0341012245063 2.8841464206312 2.8133861582015 2.9346673981062 2.9133249951143 2.9843286922142 2.8415392434705 3.0458404434213 2.7947747293117 3.0069656802674 2.800442291104 2.7160431089751 2.8780616212937 3.8488033806905 2.8742855576807 2.8854459267347 2.8506556152327 2.9564943498282 3.1361280808341 2.8629072620369 3.310074877558 3.166762787421 3.0053816777031 2.8917580607183 2.8453175108053 2.9689426769335 3.0075487560541 2.8497976620208 2.7782526227467 4.2929022056122 3.4038683241603 3.1126752078756 3.0649878139825 2.9218780194184 2.7896010201664 4.1113628678122 2.8709557630138 3.1448629931505 2.9779908245338 2.9685923246237 2.9939185565735 3.1535302001332 3.6322596994846 3.6363904156195 3.1166623334805 2.9384702201053 3.2943637446287 3.0407822080084 3.0584937524241 3.2941907271063 4.9133011691172 3.5764652103983 3.5012236861385 2.9149865941014 3.9597147787325 3.1301951384682 3.8174056471796 3.3376674279986 3.7715834514528 3.0709864690378 3.4785235283404 4.2324268498888 3.1380388861366 3.9413070079524 3.8309570732659 3.6116145143373 3.3880553475279 3.3316339746209 4.1091744625076 3.5471046408216 3.9440082737695 3.4710990359919 3.3206927436268 3.3248829291701 3.1856942889669 3.5552874086341 3.3875263631329 4.1847528052652 4.0822622309892 3.5541030081971 4.0088970871808 3.9219107938114 4.1668165220633 5.1238503361375 4.4369239878285 3.7109401604821 3.1017931906173 3.6310797607305 3.8400805933387 3.3511925305201 3.3389954753749 3.3008224586555 3.9863615975953 3.5145017720709 3.7623362438885 3.3826114316902 3.9047643627672 3.8420674274302 4.0956115826159 3.9939478334642 4.2646339417321 4.5219106277567 4.1943822102409 4.096815445805 4.0657192308209 4.3554652601241 4.4820948563061 4.3110518255641 4.1777095122323 3.9511855706253 3.6034026433259 4.6501036445709 3.8525957110486 3.5007473625929 3.9338931865598 4.0929683460913 4.1793154838722 4.0096335290194 4.1176063825781 4.227850530854 4.2956313982534 4.4226784642026 4.3432901974035 4.1692284825811 4.4513847562314 4.3107724463578 
SCALARS 40.00_0.13 double 1
LOOKUP_TABLE default