# vtk DataFile Version 3.0
d-2__ created by libgimli-v1.0.12
ASCII
DATASET UNSTRUCTURED_GRID
POINTS 1303 double
5.625	0	0
5.511811217919	-0.146388704457	0
5.676386535709	-0.13519637448	0
0.25	0	0
0.175228502521	-0.179050409113	0
0.326009290428	-0.144330725415	0
0.375	0	0
0.990207725992	-0.114957291708	0
0.841075314552	-0.137634199948	0
0.926498288371	-0.349340723189	0
-0.001071200562	-0.386156929004	0
-0.003317641763	-0.130454088023	0
-0.192720422374	-0.216308252768	0
1.25	0	0
1.175215748534	-0.200562384647	0
1.341115762259	-0.128605193971	0
1.375	0	0
2.25	0	0
2.168494514827	-0.19848886597	0
2.338304607341	-0.128945294536	0
2.375	0	0
1.911268305082	-0.334701951691	0
1.986191885908	-0.110806668109	0
1.838390258011	-0.128853462534	0
1.75	0	0
1.670105949089	-0.197137117999	0
2.986685504441	-0.10889534818	0
2.838723720416	-0.127406828384	0
2.912854264006	-0.329775839393	0
0.75	0	0
0.664572693147	-0.222613872306	0
3.25	0	0
3.168798596028	-0.193682232199	0
3.337828500197	-0.125181208794	0
2.875	0	0
2.75	0	0
4.25	0	0
4.161099470995	-0.193412132741	0
4.332718836325	-0.127723897736	0
3.83511440706	-0.12403687807	0
3.875	0	0
3.75	0	0
3.901908238995	-0.321557035295	0
3.983050435256	-0.106770030737	0
3.665527023987	-0.190866765849	0
5.25	0	0
5.164693411436	-0.21656556845	0
5.338419985376	-0.147288917438	0
4.834321952324	-0.135810575609	0
4.875	0	0
4.75	0	0
6.25	0	0
6.178399669611	-0.137425451145	0
6.356205370496	-0.193853696818	0
5.817814980918	-0.161175429964	0
5.875	0	0
5.75	0	0
6.611939839541	-0.314381537706	0
6.522886280605	-0.104721203126	0
6.75	0	0
6.669178832877	-0.119404962711	0
6.836073690852	-0.177498311423	0
5.39059629209	-0.37339102075	0
4.660917359886	-0.204007052252	0
4.902096977384	-0.356327271651	0
14.897042426984	-0.319128540459	0
14.98121339776	-0.105010975498	0
14.832720105416	-0.123004000492	0
2.669265824618	-0.196872625129	0
7.656019919505	-0.144451020927	0
7.75	0	0
7.625	0	0
6.625	0	0
8.75	0	0
8.672937461928	-0.164309120831	0
8.834289374889	-0.109279841483	0
8.206809119751	-0.294811800109	0
8.187056112549	-0.110869448227	0
8.024316200302	-0.129362764133	0
7.157390904024	-0.111206354394	0
7.25	0	0
7.125	0	0
8.25	0	0
8.125	0	0
9.75	0	0
9.651145885459	-0.185384966231	0
9.827054067621	-0.122428024454	0
9.381816956327	-0.305807769915	0
9.476753337472	-0.101567493772	0
9.327490061855	-0.116748040282	0
10.75	0	0
10.655660803951	-0.196164841752	0
10.830485405183	-0.127989131147	0
10.386748323888	-0.329675548046	0
10.478464938155	-0.108955040137	0
10.328560245085	-0.126395562242	0
9.25	0	0
9.375	0	0
10.25	0	0
10.15270392044	-0.192469144253	0
8.328856990144	-0.128933011689	0
8.375	0	0
9.153857570119	-0.175508527296	0
11.75	0	0
11.660624577581	-0.201812344528	0
11.833823570609	-0.131890823957	0
11.395399221028	-0.337817920558	0
11.481219500696	-0.111845889235	0
11.331881500183	-0.129806070652	0
12.75	0	0
12.669299873111	-0.199190799603	0
12.839534650452	-0.128328673855	0
12.40897914742	-0.340185307353	0
12.485654611126	-0.112072117633	0
12.336727606385	-0.131188239877	0
11.875	0	0
12.25	0	0
12.164627546098	-0.202605127067	0
13.75	0	0
13.669268468008	-0.186168180444	0
13.837322273199	-0.120178339978	0
13.416957459915	-0.319650485848	0
13.487510959619	-0.105281058988	0
13.34010202956	-0.123833443479	0
14.75	0	0
14.66080663422	-0.189613659871	0
14.399926333663	-0.319306441484	0
14.4823067449	-0.105599641009	0
14.334114343934	-0.12250571155	0
14.875	0	0
15.25	0	0
15.158227025815	-0.185762723401	0
15.330441202311	-0.11956675178	0
13.875	0	0
14.25	0	0
14.163960939829	-0.186365139356	0
12.875	0	0
13.25	0	0
13.171786689458	-0.193064330135	0
10.875	0	0
11.25	0	0
11.158129238503	-0.198418008741	0
7.31587636932	-0.171642077952	0
15.3902841013	-0.308450173235	0
15.478958243586	-0.102394874489	0
-0.125	0	0
0.125	0	0
0	0	0
-1	0	0
-0.706889652808	-0.331752981492	0
-0.5	0	0
1.125	0	0
1	0	0
1.625	0	0
2.125	0	0
2	0	0
1.5	0	0
1.488007132967	-0.109900770852	0
0.5	0	0
0.474245721096	-0.130043839003	0
0.625	0	0
3.125	0	0
3	0	0
3.625	0	0
4.125	0	0
4	0	0
3.5	0	0
3.485533411273	-0.107014956798	0
5.67736414417	-0.368119689468	0
5.125	0	0
5	0	0
4.98353533542	-0.118243061674	0
6.125	0	0
6	0	0
6.009467825362	-0.139471566496	0
6.5	0	0
4.625	0	0
5.5	0	0
4.5	0	0
4.481603306259	-0.111052305129	0
2.5	0	0
2.486482293556	-0.110456056597	0
2.625	0	0
7.828740664136	-0.157959666613	0
7.5	0	0
7.497789303332	-0.098817221798	0
8.625	0	0
8.5	0	0
8.493725508365	-0.094448160765	0
8	0	0
10.625	0	0
9.625	0	0
9.5	0	0
9.125	0	0
10.5	0	0
10	0	0
9.976983002093	-0.106037154081	0
10.125	0	0
9	0	0
8.980258705317	-0.095443922293	0
12.625	0	0
11.625	0	0
11.5	0	0
13.625	0	0
12.5	0	0
12	0	0
11.983083448534	-0.113269018621	0
12.125	0	0
15.125	0	0
13.5	0	0
13.125	0	0
14.625	0	0
14.5	0	0
15	0	0
11.125	0	0
14	0	0
13.984735949845	-0.103165953766	0
14.125	0	0
13	0	0
12.987740386932	-0.109238757727	0
11	0	0
10.980033547654	-0.110118532971	0
7	0	0
7.012790729926	-0.096165366155	0
15.625	0	0
15.653391866104	-0.184257106926	0
15.75	0	0
16.25	0	0
16.151956269841	-0.190746813766	0
16.328162175541	-0.125534698515	0
15.827345422636	-0.12109528269	0
15.881623705918	-0.315197408181	0
15.9768075603	-0.104841845177	0
17.25	0	0
17.155473725888	-0.187015736188	0
17.328334720487	-0.12053442359	0
17.375	0	0
16.97978281674	-0.105790715925	0
16.830585534618	-0.124270763258	0
16.892220832712	-0.321708894118	0
16.75	0	0
16.655725821363	-0.19281499559	0
18.25	0	0
18.144056513649	-0.199584109463	0
18.322695877645	-0.133173012767	0
18.375	0	0
19.25	0	0
19.156955168382	-0.212194778097	0
19.332395147696	-0.137501625504	0
19.375	0	0
18.978107771567	-0.118463258117	0
18.827251646435	-0.137822523984	0
18.884674261801	-0.359498065923	0
18.75	0	0
18.648603260315	-0.210400354993	0
17.973004229039	-0.108213471414	0
17.823362138939	-0.124125311933	0
17.87020700187	-0.324156104502	0
17.75	0	0
17.64837652944	-0.187413016584	0
20.25	0	0
20.167288289523	-0.206556633625	0
20.33799343326	-0.133667464393	0
20.375	0	0
21.25	0	0
21.172020853715	-0.201327641466	0
21.340729826518	-0.130206344264	0
20.875	0	0
20.75	0	0
20.839555732676	-0.132066213667	0
20.987710400762	-0.112937783384	0
20.915843633601	-0.342386775443	0
20.669904108595	-0.203936882105	0
22.25	0	0
22.168893714495	-0.194483818359	0
22.337089427477	-0.126591453251	0
21.875	0	0
21.75	0	0
21.840184239699	-0.127666317168	0
23.25	0	0
23.162361450448	-0.215073727418	0
23.335945395372	-0.148199257458	0
22.875	0	0
22.75	0	0
22.83504078106	-0.133126573368	0
27.412614995451	-0.337768305098	0
27.406417478875	-0.760610856776	0
27.663031754041	-0.476449210851	0
23.674319496044	-0.139602731619	0
23.75	0	0
23.625	0	0
22.902876337082	-0.348446434986	0
22.664415839639	-0.19979598046	0
21.987454968006	-0.109075483352	0
21.916658702332	-0.330379709848	0
21.67241042914	-0.19774510361	0
19.984830323221	-0.115851903278	0
19.835879034474	-0.135573032779	0
19.906686139011	-0.351521653308	0
19.75	0	0
19.663378765328	-0.209646647928	0
24.75	0	0
24.672305039303	-0.121865624882	0
24.84054616259	-0.178479133746	0
24.25	0	0
24.125	0	0
24.179559510218	-0.145425217914	0
25.656694723316	-0.141492417978	0
25.75	0	0
25.625	0	0
25.25	0	0
25.125	0	0
25.159224348757	-0.109007087058	0
22.647257188685	-0.476376729768	0
22.872248033711	-0.780455516934	0
25.317652966423	-0.167196322239	0
31.908525182248	-0.237434634112	0
32.248547795208	-0.367887731521	0
32.025	0	0
26.398062594932	-0.327144710524	0
26.335089901602	-0.124890632532	0
26.169730315141	-0.188549564961	0
26.75	0	0
26.662500836065	-0.197477656933	0
26.835401004001	-0.129534360312	0
26.375	0	0
26.25	0	0
27.486869476066	-0.111474770432	0
27.338367230812	-0.130187170762	0
23.816158307302	-0.168335740772	0
23.875	0	0
24.625	0	0
27.75	0	0
27.67023663024	-0.198727549038	0
27.839431305592	-0.128541986375	0
27.375	0	0
27.25	0	0
28.75	0	0
28.666013303123	-0.192953151514	0
28.835335299513	-0.125393524551	0
28.875	0	0
28.41074998604	-0.32692743598	0
28.485854239984	-0.108071323096	0
28.338261561589	-0.126341817439	0
28.25	0	0
28.169650699531	-0.195402875109	0
29.75	0	0
29.656991685033	-0.201213204108	0
29.830700495316	-0.13323291855	0
29.875	0	0
30.75	0	0
30.665605116896	-0.213760177502	0
30.837855425721	-0.139272404211	0
30.875	0	0
30.987248292653	-0.119871959545	0
30.911614165903	-0.362389547989	0
31.25	0	0
31.174363802618	-0.217041176186	0
31.346460135447	-0.143418487957	0
30.400599561582	-0.360265197586	0
30.483280501431	-0.118794220148	0
30.3336351656	-0.137924489201	0
30.25	0	0
30.159375273254	-0.21004086356	0
29.392934647931	-0.331414044449	0
29.48031118177	-0.110263057575	0
29.331777210358	-0.127344913482	0
29.25	0	0
29.160548153072	-0.194064979946	0
27.167334579456	-0.200440763045	0
24.359650796728	-0.20304719459	0
-0.25	0	0
-0.404335947278	-0.221464959739	0
16.125	0	0
16	0	0
17.125	0	0
17	0	0
16.5	0	0
16.478267427857	-0.108008273171	0
16.625	0	0
18.125	0	0
18	0	0
19.125	0	0
19	0	0
18.5	0	0
18.473681471998	-0.115768873419	0
18.625	0	0
17.5	0	0
17.47687846862	-0.103462148239	0
17.625	0	0
20.125	0	0
20	0	0
21.125	0	0
21	0	0
20.5	0	0
20.486446843971	-0.114298370976	0
20.625	0	0
22.125	0	0
22	0	0
23.125	0	0
23	0	0
22.983281399654	-0.116385827149	0
23.5	0	0
23.509214189908	-0.149359691049	0
22.625	0	0
22.5	0	0
22.48467632496	-0.1093719097	0
21.5	0	0
21.488472844532	-0.111208801785	0
21.625	0	0
19.5	0	0
19.482219828947	-0.117572233456	0
19.625	0	0
24.5	0	0
24.525433875838	-0.108080714825	0
25.824234283709	-0.149177038136	0
25.5	0	0
25.498573523516	-0.096586408813	0
25	0	0
25.014769107289	-0.095147895568	0
21.919931345447	-0.741308582321	0
22.160361550711	-0.463896476278	0
26.625	0	0
26.5	0	0
26.482631880244	-0.108512805864	0
27.625	0	0
27.5	0	0
27	0	0
26.984612185119	-0.111680714924	0
27.125	0	0
26.125	0	0
26	0	0
25.990349817319	-0.10847866492	0
28.125	0	0
28.625	0	0
28.5	0	0
30.625	0	0
29.625	0	0
29.5	0	0
29	0	0
28.983089608831	-0.107750428826	0
29.125	0	0
30.125	0	0
30.5	0	0
31.63125	0	0
31.5	0	0
31.494696987447	-0.123712578064	0
23.671261205816	-0.380102168636	0
31	0	0
31.125	0	0
30	0	0
29.980228243528	-0.115525062547	0
28	0	0
[...]
CELL_DATA 2263
SCALARS 1000.00_0.93 double 1
LOOKUP_TABLE default
10.119948990586 7.4345546428241 7.5177943229454 7.640272716233 7.4091727785748 7.15090750327 7.2149142832631 9.3473571752103 9.3337917702384 9.5494460042625 9.6955174598179 9.0732578263898 7.7533336077486 8.6042334508584 9.3412721059678 9.5948382130115 8.9926305184676 8.9395554855388 8.9545411061681 9.4397687529042 9.770493775286 9.2107821715492 10.140556309315 8.9134951375012 8.7433116714181 9.4108753476498 10.187117988659 9.3589209317064 9.6811281066268 9.8111960666297 9.3666868649266 10.463526068836 8.6912586124957 9.9036992667297 9.8149363833389 9.9292484657922 9.852351779973 9.6577873013919 9.2794383402924 10.873765721077 10.289177181138 9.0614413199136 10.328816580066 9.9854092327703 9.0731321064515 9.5140545340448 10.000984782462 9.4662860287416 9.1735529145305 9.4812376922397 9.1241652447667 9.578913254587 9.8158916308135 9.9778988458811 9.9751888667855 10.006841112693 9.345086612948 9.5628841760508 10.147862723537 9.5643210063425 9.7402706567378 11.012619383142 10.071537221349 9.9840712102831 9.5840884548278 7.5674030019915 7.4078980729951 7.015892849029 7.1077767663515 7.4751270902917 9.5893534060024 9.827185249432 8.749117461482 9.4772829414989 7.873774646873 7.3415559576203 8.7359220105162 9.1190273798406 9.0020721138338 9.4444396634946 8.9531058963943 9.620204780141 9.7924245103893 9.6519274107156 10.122689859903 9.5899007552834 8.8564549680146 9.6998390704493 10.098181985911 9.7801030296561 9.7300724699978 9.4578624765553 9.6402658546483 7.8036154560411 10.439277785961 10.406216423053 9.88994708919 10.039881185997 10.045913270613 9.9131512023433 10.821005315799 9.5939967476614 9.1340781114183 10.694375736185 10.113930827419 10.296536155868 9.5746566680461 9.6858759145829 9.4241938802894 10.006440017574 9.6395917008979 9.4073862925546 9.4209502562838 9.1766015029305 9.3569928634687 9.8888185908061 9.7176312529476 10.145100590068 9.6736304044149 10.142178530311 10.115344869913 10.223220967043 9.7751706284953 10.033033696292 10.586721773651 9.6448902869908 9.6608934869446 9.5190804030134 10.072380722059 9.8516795501495 9.8512991548981 8.9272367064741 8.9227343094633 10.153671923923 10.610728405053 8.9137617093235 8.8886276779441 9.1273351195989 9.1628742924922 8.9195419814894 8.8653255661171 9.0846664096232 9.0344929297782 10.623694594264 10.732523490068 8.9842956401869 9.6283797051361 9.5641728898149 9.6093824997483 10.047162704408 9.4829377828233 10.274739095534 9.1359506267307 7.5929188107941 8.8194832684474 9.0646986184632 9.1449190035999 9.5288559572301 9.4944208159181 9.6793067563302 9.55863521981 9.3627880556061 8.5459630606029 10.285583717919 9.9281675709091 7.8105844611693 9.8460456300033 6.7248134614856 8.9835521362061 8.6758614050458 9.3010619078216 8.9760175612934 8.7558063450527 9.404969112086 9.2981362061334 8.8827412556586 9.1897884868384 9.6482402204346 9.7379740591171 9.3056426380378 9.3177233232198 8.611372365456 8.5610694510197 7.8499026447503 7.899900994792 7.8163352348766 7.3239452238525 7.3765067752157 7.1894621501416 8.9242879743469 8.9858964321704 9.1232903695649 8.5643678969242 7.394229002662 9.9898260602571 9.9038075570669 9.667567889317 10.310200226534 9.9985345221007 10.596219602308 9.2084356619185 9.1592426425043 9.2092286703823 9.0372055375059 9.0223262266782 9.1864427619546 8.9795307471998 9.0781152144295 10.383808885967 9.0712573682436 9.5286746709151 10.185871615229 10.668805771675 10.216432603033 10.141109561212 8.7619242919103 10.086815901538 9.3359051244336 9.2505110305754 9.6654191032564 10.442092403257 9.6277478782162 9.6817013673949 9.5669994032707 8.9124479538962 9.5739135832433 9.3797509645566 10.143827281617 10.217864486943 9.908063475354 8.0201947282766 8.700907067969 8.9603015504525 8.9182956548722 9.1035151874345 9.0694625943965 9.4189628855697 9.7093708305451 9.275347123688 9.6181868413213 7.829844951469 9.0553556128734 9.3935527319155 8.7801929504371 7.271015755648 7.6988596678052 9.1381815765891 7.3984897492583 8.7270242544526 7.8219265729236 9.0402495235471 7.8601733871059 7.4541470351754 9.1786153830007 9.6436460652644 8.739719914261 9.6029778482618 7.2813703198146 9.949217964722 7.3549748732481 9.0873750420471 7.7959072155831 7.2939922727542 7.9594226430397 9.6151390866974 9.4912006915206 9.2033812930531 9.9584529964931 7.8580725518806 7.7024850151711 8.9089918049467 8.74831659076 9.4946797700457 9.7664634766861 8.9752287421306 9.2098465205559 9.5090456294617 9.8504655144431 8.7213819913931 9.1010783494971 7.7472749357503 9.3531563063003 9.3252939498255 9.8998278670848 9.6475670626278 9.8088597503949 9.5703192085901 9.2552366257682 10.404456287984 9.9537882918747 9.8861852543867 9.9904895789696 10.134174376766 9.6752782352903 9.9043879999766 10.692074151174 10.978192333155 10.177301203465 10.665214850441 9.3476570038347 9.3402010967214 9.8257132981337 9.4991250228713 9.4014729984512 9.7806676917258 9.2893245910986 9.3448244075428 9.7803846419305 9.8190688951312 10.053241838904 9.9288150776055 9.4992961593158 9.6581387297537 10.18401016289 10.184844636375 9.7355105552899 9.9451448970181 10.317128943073 10.133077292832 9.9436333504254 10.348321202733 7.3037100287539 10.04858897488 9.9721369993497 9.9227713594709 10.09834701713 9.2614568446433 9.1280810185218 10.397627230353 10.380264320999 9.1411094478577 8.9929787049195 9.1919761814821 9.4084134411331 8.9828376950835 9.0903992646944 9.1714752003788 9.1618211606178 10.488587926239 10.603853753404 9.3194109189679 9.2968609595458 9.8743607357958 9.6996629218011 10.179477197786 9.8745432424693 10.245638247 9.8933088963875 8.8846206495403 8.8388838559038 9.426166033147 9.5372724892297 9.6614181145703 9.7731437124837 9.5713161769171 10.005801712397 10.228050253853 9.6658093317679 9.8289829747918 9.9129755566229 9.2264288373288 9.9830401667646 8.7799371356357 8.9582849419084 9.4900869960174 9.1817425600313 8.9704655856915 9.102939936192 9.5794779996883 9.6939860732517 9.1852829359065 9.625945319882 8.9081609922251 8.2834978498189 7.7795179640147 7.9452030670855 7.658054969785 7.2587439210741 7.5388200384333 7.4824162510651 9.171145379048 9.1160963235494 9.0787766626842 9.2193299999877 8.6986585637481 9.0892311469409 7.0591107170113 7.5216153121835 7.2456983675103 7.5818979815022 7.3466424033844 7.1892710112661 7.7543190158129 8.5822322119117 9.8586064483252 8.5737303674765 7.4658143532759 7.7835195922162 7.6830079032081 7.6399634002142 8.198054505622 9.6848630815276 8.4238851934336 9.5112900042569 8.8452294935452 8.5985374794197 9.2655613509962 9.2669188799146 9.2648751310769 7.9010549426663 9.3462408279558 10.536127417949 9.5061077974568 5.645536079717 9.0122263495001 9.407080549952 9.3860388463669 9.2655283275424 10.100505327877 9.9450393194609 9.8850976789234 9.6887926327477 9.3272310262558 9.6071413289025 9.0606161564958 9.6541703607016 10.4536791843 9.1746556807613 9.4300729007619 9.6932970415327 9.7318333546945 9.7790012734816 10.080391592865 8.7697177247626 9.1527491076946 9.3460104605321 9.8117138870427 9.3881961855814 9.8038442088608 9.3365472436206 10.168413266698 9.3588329111081 9.8646491734737 9.9825070721609 9.7681778029362 9.7177363380516 9.19269022178 9.5660470609954 10.284795014958 10.664173211404 8.8112597192002 9.7864111202471 9.2664464826975 9.8916999270099 9.7714729822745 9.901309414904 10.725109059412 8.5738633185588 9.7540056266803 9.8342704745634 9.0281757988096 8.446409286024 8.8835727730175 9.082979849526 9.0516458798786 8.873388787627 9.6265011224119 9.1076964658048 9.6194497324318 8.9540370887462 8.7781985895063 10.028542613878 9.8303606719835 10.219975908798 8.8946281610802 10.307075560712 9.5161806150917 8.9702353248221 9.2779717004596 9.6690788678589 9.6366615016835 9.6422806264243 9.3856349617446 9.1998785564922 8.9536057649849 9.1970513598836 9.4832663905776 10.141343150625 8.4443374336493 8.7340969853579 8.6796641574902 7.8671204425747 8.8169070716189 8.932327358444 8.9761466043272 9.7026993706264 8.2648977837881 8.7004798764512 9.4394186681424 8.1015594386762 8.826986916963 8.875468542722 9.0143889450051 7.2293119379476 7.1823331213004 7.2280987525364 7.5179752139389 6.9127952040902 8.7722988535046 8.2046604646764 9.2718793862439 9.4403896753942 8.9926258223945 8.5605585315041 9.5470413886257 8.5531644723373 7.0503505201781 7.1550815937141 7.2947452279692 6.7563579171752 7.5055559276997 7.6537182416949 7.4187944042715 7.5021743537246 9.1273035047086 9.3707378193277 9.3057265194045 9.8760065199849 7.6070439959453 7.7521847126656 8.4823376370142 8.6201299876513 9.2358253216682 9.678145912666 8.7592504451292 9.042087656713 7.6506626346935 9.6074908104447 8.805720824596 9.2273007997002 7.1630665548675 8.8643705477523 9.0442875864325 9.9961262979642 8.6250601301208 9.7680834180435 9.0294240872982 9.2839345484862 9.8142807697131 10.463141229481 10.027750728256 9.9455913905815 9.1794305213479 10.065392832715 9.5367916500117 9.7530368512395 10.52766158638 11.001729217823 10.062079395759 10.51080583524 9.1593434262884 9.1810646131563 9.3587508699865 9.4861586645586 9.3645658197805 9.6577659796806 9.0328233755301 9.2270746160776 9.588037264902 9.6551898926216 9.7594163795705 9.9786686057239 9.4352486892253 9.4842499254833 9.886796883708 10.148027547661 9.666854944354 9.8779550511703 9.9440974765436 10.113945065184 8.9962368113716 10.13047220565 9.8129127877632 9.9546626750689 9.685871169532 9.9385348410985 9.0286623535918 9.0327635546402 10.141312582241 10.591896177382 8.8018828680252 8.9236384633526 9.0091640827261 9.252175852292 8.7693486623542 8.9637534189656 9.0144789946299 9.090629458493 10.092141715922 10.657395847431 9.0291674941751 9.0938054039831 9.4623659751728 9.6794804547048 9.5942977382928 9.929800534003 8.5865344701005 10.088657855925 7.4836442511322 8.788565145181 8.6591549377057 9.2582144455744 9.330545146306 9.5607897375515 9.4192669759106 9.742450707639 7.2078542009712 9.4031470551239 9.1888609140216 9.975684284907 8.2694804894187 9.8391601034373 8.7303818113929 8.8119852037686 7.9974811433261 9.2312742090844 8.7263477073969 8.9832811916377 9.351636047583 9.7179262027191 9.1063290511313 9.4975354446414 8.2943948688892 8.4481498136331 7.7217673006926 7.9301596670607 7.2978573277909 7.2357514114479 7.2457026461494 7.3084095000877 8.8479696600094 9.0552504223346 8.8602504423064 9.1879168200966 8.1656733091185 8.6636393040967 7.1912256699111 8.3768901753987 6.9674520964012 9.2269240138912 8.5433167018225 8.6534669707613 7.5646905364291 8.0724614275285 6.7791113071898 7.2492578554675 8.4504286749083 9.3038790079321 8.4909631599211 8.1578335537444 8.1121460524854 8.1651040230602 9.5048895821946 9.4621808397124 8.6324914606691 9.6841043770396 8.7457839803528 10.203534088204 7.8378350960205 9.707250801206 9.8216901511678 10.000323225821 7.7169601847689 8.5025773440197 8.4693130011735 9.8100273870756 10.394663296505 9.7721872254753 8.6021418219113 9.4485230496741 9.0154608781286 10.354313702973 9.7374292410247 9.2347304276629 9.0745488130708 9.2519521289362 8.5262113196699 7.8637230622179 8.2531252111736 9.5777407889935 8.8340756972476 9.8408869254671 8.0394124212151 8.70432245733 8.755461094817 9.6170684230669 8.7169500256437 9.4424878878141 9.2420147894473 9.2789124065737 8.7097417086303 9.3810858419508 8.2737019783301 9.1507386753785 8.8721025434281 9.6494690000611 8.684055568339 9.0491488904416 8.820414368191 9.0858985579968 8.8163014864553 9.1454797082075 8.9404730922674 8.8316917250285 8.6085785323435 9.3546975488127 7.7944907253584 9.258579902537 8.4746380698852 9.8539655548415 7.6651724000667 8.3381530433243 8.4240338262133 8.8303674158877 8.1737627717901 9.3332787315662 8.6907523554228 9.3647641863964 8.0882332820351 9.0323291525387 9.6612533722401 7.3260862207381 8.8538925488262 5.2573007345094 7.7356737802277 7.2141924811693 6.9433365227895 8.5045097543629 7.2962500321617 8.7577196956024 7.8064182068452 8.7087310309454 6.9064869455844 9.3509924398824 9.4678156488641 8.7247513779599 9.1345999118303 8.8023013407382 9.6296589469392 8.8814955216882 9.1782527574205 8.5358452462504 8.2636215904551 9.169537399735 8.7258151269995 7.780838198659 8.2538200540165 8.4099965683671 7.1346308668237 7.6984516259933 6.8443495208927 7.2516196725581 6.5220043785999 6.6622854318071 6.6798466200741 7.2517179179017 7.9767928845094 8.5486922303313 8.5335894493188 9.5311515107733 7.6015940313781 7.8417610267187 6.6610010536022 6.7695538514647 8.7516357312681 7.3865911184171 6.4492726248081 6.8175505687758 7.1691128828814 7.3179328131471 6.9492440450304 7.1977286371037 5.7587871966391 6.8775031412642 6.5364309464195 8.3164590039664 6.9658820740162 7.2027319136527 7.6647039503759 7.2460342267756 6.7771409687362 6.8129510958068 6.4713479149485 8.1991150104479 9.8692639140161 7.47781133957 7.5019916078549 8.5841318176658 8.3518601189777 9.1976488155414 8.1936985816084 7.9181681948085 9.8850076559747 5.1242613207531 8.7925773091667 7.5774761242692 8.6583557186129 7.6277072294319 7.5605310401025 7.0237723962618 7.7142245571535 8.7464208839465 8.6132129952127 8.5910073422317 7.0804017261489 9.3353143064815 8.5665064029849 9.1376491954094 8.7332625207128 9.5593981362315 8.7977843581541 9.1437506805882 9.1814137042898 8.6451086877349 8.0787672192543 9.0260604339088 8.0845050293573 9.3239883200935 9.4366426285572 9.3772743231043 8.7437908083686 9.3118494707655 8.768429874817 9.2054714817961 8.6272376924754 7.5481077953688 8.1367570852395 9.5403977856533 8.6952491872911 8.0523039795615 7.4466825162599 5.1782826988984 7.670775548604 6.8141215921775 9.414396449921 8.2282873491302 9.240808860754 8.8823337967812 8.6165476164785 9.4100717018217 8.0667954401137 8.7489490848942 8.6161535396676 8.3203585647258 8.1014373825945 8.4748753376106 7.7167830926872 8.7632127959144 8.1655508836353 7.9221254889417 7.0412768870175 8.9499066296338 8.4792945631805 9.1446625265916 8.0439998436857 8.5934344720412 8.2052194009958 8.8844025959714 8.4252999493249 7.970238330042 9.3060418923963 8.7507610988134 7.2574735802745 5.675127524904 7.8047716171501 8.7609818919618 8.0132054545015 7.1034881242674 7.359649922122 7.9636797789169 9.8137702037064 8.9081125806729 5.7235396362576 7.9457828505893 7.865694964257 5.6806637594603 8.1170547798979 8.4784983418316 5.5015944366878 8.2321323839988 7.9361522759122 7.2948080952742 6.6325266785248 7.1032157767368 6.7231129154633 7.9343615547416 6.9109472731118 8.4491063624996 7.7044466482697 7.3623793030602 6.3379308217191 8.7548300807878 9.4051455249303 9.9220607774593 7.716092264067 7.3436892525895 6.6376475893506 8.7192690724013 5.459970058593 7.2001034526139 9.1799380417752 6.6074498719251 5.561616261512 6.3443641871903 4.5357547630981 5.6189548670399 8.3611113412978 6.9334900854891 8.7065198092952 7.1942431469005 6.214966206396 6.4709347899832 9.346742571642 8.0140804234683 8.4439257234182 9.0429720675557 7.812185853003 6.9150619826869 9.5260470909905 7.0278024231609 5.2757148489255 5.3615592432936 5.6116865675459 7.6795634966097 5.9933080617873 8.4382888621737 8.4936330319147 8.6551928009622 8.4699903600139 8.9635143050566 8.1159754677924 5.6065158973029 7.8073040553005 8.1368609235108 5.2313919009142 8.7014250386763 8.2940799608879 6.6946996639774 8.7043938286485 6.1062319731031 8.1489518665371 5.6303193329802 8.3953681035259 6.18196810306 7.8749825603971 5.4254069411643 7.7361928960625 5.6423948688198 8.8667687818254 4.7507631964788 8.0610305392764 7.953907437367 5.3271337804115 3.1750888103461 6.6393847692326 7.6790636953258 6.9065323362564 6.2372953755221 7.9237406995167 6.8186875410661 8.5550726122358 6.5217951887453 5.9296705649522 8.0378670769976 6.4928194211262 7.730566724934 5.7280607020618 6.5034152161689 7.3298972206932 5.9857338598415 8.3739197087438 6.3373445666954 7.7387452495919 8.148219311269 6.9769096691428 6.0273217244061 7.2970499235179 5.2220947860974 7.9776875057033 8.3600079182161 7.5303434461519 8.6701389004423 7.9669989616883 4.3551227667875 8.3249146219133 5.6327090117067 7.3813383317084 5.5901099763434 7.8837291467003 5.5467409918461 7.2383953000782 7.8411254807907 5.6695233976375 7.5189477890183 8.1073157917582 7.6533373179187 7.5754651881445 6.8788891211128 6.0261481552794 6.3878633908819 5.3894562008019 6.0170801833722 7.5566094693881 5.9250673281459 6.8169662732708 4.1945621932266 7.9253661667443 5.4901212462253 7.260017026107 8.6227550664071 8.8654469673466 7.5734255866651 9.4864044709322 7.0325271898138 7.8064082920026 7.3041570352908 6.3528119378132 5.2195943269003 7.2882672605247 5.5490560397333 5.0329445323521 5.723502255763 5.1388237355372 6.7787606911642 5.4515750568513 5.412209555105 3.7694617663291 6.2961759869812 6.0444193769347 6.6629781249519 6.2868832110007 5.920432569723 4.5485660319949 5.3630395385253 6.4234963899308 6.2557567479601 6.3185999979955 5.1214853161676 6.600297265606 6.2183267479122 6.1120626236866 7.8969851005851 5.6019016124462 6.2643573382503 5.6971954310784 6.1208431811432 6.684271743874 5.7058239524227 7.8463630623083 8.5585889311772 7.9916315872569 7.008227721594 5.4980110771179 6.9002664228906 6.7279970572944 8.2251457687014 6.0754411349975 5.3286075874256 7.9249373020685 6.1045653922339 5.0536744136926 5.9986216580612 6.8483206069462 5.2156137476139 5.4268339486622 6.0256282004661 5.707550234031 4.3811506846733 5.3803140493918 4.8569893655554 5.1561432182244 4.3512722198496 4.1500546010606 5.9359506036698 4.926156253801 3.9177375459057 3.8676881881693 3.1567519817164 3.8308590749005 4.1046918062755 6.594870027736 6.7107317189999 6.1593916063162 6.3434930931699 9.5101364860091 5.1560383243485 6.1856418475102 5.7312034892218 7.7061319797082 8.3962123281079 5.3204564093725 5.7460352063533 6.5097975861874 7.8784094320351 6.0770909626139 5.8915615077296 7.6816262015199 6.2901370841951 4.9054923150697 5.3987820067422 5.6224661708376 5.189375395912 4.3270444133661 5.2426129374612 4.531204762503 5.1773144572409 5.6726899931306 6.00852531988 4.7073171897567 5.2611536455072 6.1598210849941 5.5829384150258 4.7588468742995 5.0621557454945 4.8190773524985 6.3168162340206 5.2246298891495 3.6166373928413 5.5888095728766 4.8583293759637 4.2119995786623 4.7026987118712 5.3419457806369 4.1892309029843 4.0189801031564 5.8176503059263 6.3546509553762 6.3571455810642 4.0743046976938 3.154894486493 4.6799112874422 5.7735384687955 5.7937956228212 5.8343920040262 6.1278591079026 5.0292326873869 5.2865798374154 4.6393228734653 4.2565415574699 3.7426020464747 4.2273785050324 5.2026371433484 3.7617906507514 3.688280003066 4.7449094881904 3.9603125149842 4.3606692507222 4.6579718167157 4.4878735634355 5.3096319477191 4.9023523022864 5.6599045766722 5.5480994034777 4.6044651442802 4.8902863943569 5.3696889454702 4.4813448290132 3.5674160312846 5.7983536271265 5.7830889648835 6.4476933455192 4.1532630432159 5.8182225143169 5.743283152233 5.7107480113808 5.2781948687931 4.5615131659395 4.119680413935 5.3830761814744 3.9820409647098 6.3898471228493 6.8623579547243 4.409354858724 5.1669477030918 4.1309335188076 5.5236666790463 6.2923427050433 6.1173410096677 4.1804254917354 4.6980931043627 2.977366729835 4.4744818801617 3.803428780905 6.2311203979578 4.8457447062682 5.2714181476827 4.3536359882528 3.7870871706142 5.1597277687662 4.3244307600728 5.2498689763495 3.5921888522626 3.7769223845988 5.8179801835451 4.68258068319 4.1443428081958 5.2180142556806 4.7858367172204 5.6263928733315 3.9254337258808 4.8422231146523 4.4053410188024 3.968781203876 5.1051858538612 4.6857717840948 5.9805635582382 4.9431107702957 5.4650204332925 5.3333777590127 6.0179910406616 6.2957276132428 6.4792817210361 4.8695635152451 5.9011454579368 5.4118354983434 4.3825566363161 3.8601112178445 4.4959804179511 4.1575902127875 4.6961554206953 4.4814738973023 3.6083315465014 5.2468311777348 5.8061141614239 3.8296176166884 3.8752281212298 5.2038584359682 3.6992110571033 5.1985274211158 4.0445439871588 4.0611308145843 3.1991719470278 4.5131100193005 3.2093174666122 3.2978762490371 4.3191241229333 3.7667656158841 4.4911348240544 5.3535808160793 4.5204607647719 3.4006955169531 3.761985877655 4.2250452315071 4.856827578632