# vtk DataFile Version 3.0
d-2__ created by libgimli-v1.1.0
ASCII
DATASET UNSTRUCTURED_GRID
POINTS 570 double
14.5	0	0
14.25	0	0
14.386963504964	-0.201738469428	0
22.399299936458	-0.310870122736	0
22.129824335287	-0.229914148082	0
22.126320781198	-0.518791771445	0
8.472303742627	-0.591754876635	0
8.780507935475	-0.76092407121	0
8.82173151259	-0.349253271447	0
18.663262297679	-0.667179415955	0
18.934786529245	-0.453308328646	0
18.636898038907	-0.29588182328	0
4.016904362632	-0.85330676142	0
4.076038737616	-0.331410355179	0
3.713721571226	-0.470767763626	0
1.89953779852	-0.269343012166	0
1.633800503821	-0.203067612233	0
1.644492760828	-0.441295523531	0
4.368408037607	-0.250833874131	0
4.337474161742	-0.544420985055	0
4.67745607622	-0.378433532554	0
1.406172533733	-0.772361039307	0
1.913288206557	-1.218576310882	0
1.90687689783	-0.651895683444	0
2.5	0	0
2.25	0	0
2.347047126858	-0.185539804102	0
1.374000926997	-0.300418771701	0
1.25	0	0
1.114902662369	-0.201591505098	0
1.067401015567	-0.470108640981	0
5.75	0	0
5.699780065382	-0.324747799653	0
5.924584257371	-0.172748359932	0
0.883560935405	-0.231136840652	0
1	0	0
9	0	0
9.117836368049	-0.253904480787	0
2.625577516194	-0.346770599322	0
17.859079774019	-0.943547525024	0
17.535029634209	-1.703182852412	0
18.338018094476	-1.366069799339	0
19.932263871771	-0.826489183604	0
19.881635677668	-0.346204516721	0
19.622287080959	-0.573770479943	0
1.5	0	0
1.75	0	0
23.25	0	0
23	0	0
23.109690227386	-0.220340974338	0
2.75	0	0
2.142562771237	-0.172460438312	0
2	0	0
23.332392704446	-0.202507275941	0
23.5	0	0
19	0	0
18.75	0	0
18.888143078348	-0.195773419804	0
2.90152418742	-0.185685383897	0
7.612175045312	-0.180627982114	0
7.527150943175	-0.401430797998	0
7.881917737402	-0.30462800112	0
25.630635194756	-0.512020961038	0
25.243766894324	-0.80097755811	0
25.758031115142	-0.952821630144	0
3	0	0
28.84859809239	-0.201276387394	0
29	0	0
28.75	0	0
4	0	0
3.835807353334	-0.199536243303	0
3.106904732949	-0.178783649348	0
29.25	0	0
29.092446172194	-0.305987136665	0
13.5	0	0
13.667851890428	-0.185102765244	0
13.75	0	0
3.75	0	0
14.407363653886	-0.441423674912	0
14.125469935998	-0.279652141152	0
4.25	0	0
5.061980176718	-0.407989246181	0
5.335512032876	-0.269401530321	0
5.113979852892	-0.173834924157	0
11.882046000841	-0.812345557852	0
12.478640631525	-1.146569360669	0
12.244190771573	-0.565936619511	0
3.633270844505	-0.195395238442	0
14	0	0
18.378272976509	-0.514977451159	0
5.5	0	0
9.619519097921	-1.16461851757	0
10.030576753886	-1.587265312651	0
9.961661342999	-1.070235523667	0
5.25	0	0
5	0	0
13.157975569138	-0.830425793913	0
13.83833027638	-1.238601004239	0
13.671302359608	-0.710707966059	0
11.325917093147	-0.8366783502	0
11.612143285947	-0.506264798476	0
6	0	0
7	0	0
6.83842404292	-0.188923754932	0
7.11236984822	-0.391746146843	0
6.631875629497	-0.169178192832	0
6.75	0	0
3.21002197083	-0.595267231049	0
3.445510026908	-0.608065324465	0
3.362318141622	-0.306501255187	0
6.120159502895	-0.164221934939	0
4.538525595924	-0.906226152762	0
13.233775457127	-1.737244787017	0
4.5	0	0
16.138065841822	-0.472802517973	0
16.126746690205	-0.221608117926	0
15.859319180798	-0.326402762318	0
26.080401003391	-0.227842452866	0
26.25	0	0
26	0	0
3.019224421113	-0.401469974918	0
8.234901607028	-0.35771789179	0
8.518285578354	-0.242327591839	0
8.328777073389	-0.153008859619	0
7.25	0	0
7.400656881666	-0.195280611572	0
7.5	0	0
5.385509485898	-0.709154879541	0
5.948697127931	-0.745234910621	0
8.75	0	0
8.5	0	0
8.25	0	0
2.214249105773	-0.404278959534	0
2.896561357202	-0.792481120253	0
9.25	0	0
4.920911116561	-0.192028847294	0
9.651670336652	-0.200847798694	0
9.849824537955	-0.19917205686	0
9.75	0	0
10.095049354068	-0.315754204277	0
10	0	0
3.25	0	0
6.738406513564	-0.710129601907	0
7.121614580011	-0.943026074581	0
11.345829942703	-0.314788260019	0
11.25	0	0
11.104427225455	-0.188863495516	0
6.052412255932	-0.372556729023	0
6.373371846535	-0.274163514827	0
10.25	0	0
10.380281579003	-0.241092027437	0
10.5	0	0
10.75	0	0
10.909079077441	-0.189427130481	0
11	0	0
6.25	0	0
6.5	0	0
4.75	0	0
3.5	0	0
10.672815698565	-0.318467932684	0
10.772487906066	-0.787092734739	0
11.020900486567	-0.439266778492	0
8	0	0
7.75	0	0
11.5	0	0
11.619450354737	-0.231443672836	0
11.75	0	0
8.139317726831	-0.163309591658	0
12.25	0	0
12.158949464947	-0.235415698299	0
12.412455385193	-0.275030800337	0
12.929165084344	-0.221336108042	0
12.686337592177	-0.258437422252	0
12.900449535554	-0.462768612232	0
12.5	0	0
9.405755833308	-0.325979504745	0
9.111697192308	-0.594170467817	0
9.457257345083	-0.753685223931	0
18.101369157139	-0.618560521812	0
18.336839281097	-0.861122419318	0
10.385948631267	-0.570640149046	0
9.5	0	0
13.411260455969	-0.342646276848	0
12.643108055516	-0.590179775368	0
13.137744715761	-0.195204172124	0
13	0	0
21.25	0	0
21.358341816502	-0.326561417551	0
21.5	0	0
13.816492716597	-0.40394453634	0
20.25	0	0
20.423452336785	-0.313445603959	0
20.5	0	0
17.789350393153	-0.390447709085	0
17.987794057246	-0.401472255242	0
17.881276545163	-0.206424156589	0
19.564465692234	-0.270867872644	0
19.290725118801	-0.49926248604	0
16.392319441256	-0.29915360323	0
19.443730892406	-0.923508713428	0
20.457987075478	-0.803203365193	0
20.167450719332	-0.505159975143	0
0.103762538371	-0.253013629949	0
0.267057015134	-0.483604909932	0
0.374713194419	-0.2320817565	0
13.25	0	0
17.415572543912	-0.230682214253	0
17.5	0	0
17.25	0	0
18.108153655084	-0.208141099276	0
18.25	0	0
18	0	0
15.75	0	0
15.544586046819	-0.246453491997	0
15.122708481244	-0.193620038745	0
15.25	0	0
15	0	0
19.75	0	0
24.149237782749	-0.319013340846	0
23.842766599446	-0.577371105011	0
24.183995039967	-0.73159476451	0
13.871646321742	-0.17394291424	0
23.862588150518	-0.245417872715	0
16.84024277193	-0.203626765466	0
16.704049384397	-0.435508179396	0
17.112673188265	-0.38804641709	0
24.75	0	0
24.832880292394	-0.290571430318	0
25	0	0
16.40158555625	-0.755912194683	0
16.850299990829	-0.757941865332	0
17.75	0	0
23.567455674596	-0.325197491724	0
16.25	0	0
16	0	0
22.645812614293	-0.197864648876	0
22.75	0	0
22.5	0	0
16.75	0	0
17	0	0
24	0	0
26.914424714815	-0.337869958787	0
26.621963281699	-0.624626679172	0
26.977877660759	-0.778408201088	0
26.622424322919	-0.264588309935	0
19.34462271879	-0.199329831305	0
19.25	0	0
19.118057075065	-0.225686869553	0
19.5	0	0
26.75	0	0
27	0	0
27.5	0	0
27.604422363523	-0.298869962794	0
27.75	0	0
17.650384190064	-0.227839036584	0
18.343198956448	-0.236734208617	0
18.5	0	0
24.25	0	0
20.143897114391	-0.233773711865	0
25.5	0	0
25.25	0	0
25.344389320279	-0.31693710653	0
21.059546193318	-0.24845941382	0
20	0	0
25.842927934822	-0.248287716678	0
25.75	0	0
25.613904645132	-0.216025146631	0
21	0	0
11.763551406169	-1.481607093928	0
30.981104050195	-0.5526690913	0
30.873880294509	-0.217692518774	0
30.706626759758	-0.34945139905	0
20.75	0	0
20.85240828135	-0.178025243856	0
23.75	0	0
20.66289882074	-0.189089155251	0
30.204950808504	-0.791758966623	0
30.715535843381	-1.149995259266	0
30.543724897762	-0.572259098027	0
30	0	0
30.180216671806	-0.343473673313	0
30.25	0	0
23.229584388362	-0.458653998547	0
29.5	0	0
29.623391954444	-0.322069028408	0
29.75	0	0
21.618913855927	-0.233585823579	0
21.75	0	0
29.348490380579	-0.521100538161	0
29.36294710412	-0.230601226356	0
22	0	0
22.25	0	0
28.25	0	0
28	0	0
28.129259193923	-0.314252106503	0
28.44374413871	-0.484576386004	0
28.100199615755	-0.812038297775	0
28.649230646972	-0.871769248311	0
28.618403654115	-0.227691192115	0
28.5	0	0
28.387848605749	-0.205892081491	0
29.054768525933	-0.708603081552	0
29.344906532636	-0.846887322836	0
26.327430876245	-0.35930637997	0
10.349120516034	-1.04150119828	0
10.894920134778	-1.514321070539	0
24.59640839418	-0.191760546865	0
12.75	0	0
24.5	0	0
13.102881121377	-0.411296235356	0
25.099388239946	-0.214879887129	0
25.97986022697	-0.52841375324	0
24.398993403151	-0.196312410538	0
17.860840746535	-0.577367743328	0
17.566481510048	-0.529340016102	0
26.5	0	0
16.637148248735	-0.188015807345	0
18.183918302467	-0.396443618316	0
27.159348252167	-0.205297590358	0
27.357530053515	-0.198815038154	0
27.25	0	0
15.060354649709	-1.112587998155	0
15.51532665618	-1.043792149387	0
15.178150912169	-0.713100616689	0
10.051363365948	-0.719159376333	0
14.661248691948	-0.27865166374	0
14.75	0	0
27.868836823455	-0.217301839861	0
31	0	0
30.75	0	0
-0.020273477909	-1.415389842481	0
1.054972770973	-1.487485199502	0
0.512583677021	-1.0438154777	0
0.75	0	0
2.361419414365	-0.794513604096	0
29.890297721653	-0.2433406165	0
30.473599299501	-0.238575611274	0
30.5	0	0
30.660802173874	-0.161931182737	0
28.783812899585	-0.467926883932	0
4.937022539393	-0.72440615077	0
6.696914540879	-0.380672503721	0
7.434272221796	-0.695675918868	0
15.339606453815	-0.166204802571	0
15.281953315711	-0.388999642276	0
11.893544445085	-0.335972898148	0
12	0	0
9.753796445798	-0.478866225926	0
7.720012958977	-0.638314519759	0
21.871398197179	-0.313006985103	0
21.615176662754	-0.521922347305	0
21.856785525528	-0.665128848631	0
20.792152536902	-0.448319093295	0
21.109577821412	-0.527879642114	0
21.360297691811	-0.734200004244	0
15.547854961707	-0.580173571081	0
24.496861814148	-0.467031445896	0
25.067351422649	-0.463427753535	0
24.81263825963	-0.684738154192	0
22.865620821195	-0.218348593093	0
23.443705587002	-0.773171720633	0
27.277617447467	-0.489224417775	0
27.863714790534	-0.471681393437	0
26.239117668995	-0.863279739365	0
29.896797054636	-0.547765129844	0
29.612773839625	-0.699757135752	0
29.867172666547	-0.87444432816	0
29.610354212963	-1.521444655905	0
29.59548165142	-1.071765512911	0
29.115129171034	-1.220660174798	0
31.345359428525	-0.458952144926	0
31.144859415042	-0.241304201582	0
15.919565295974	-0.746550096707	0
16.063006820294	-1.289595303187	0
16.5	0	0
14.900855313538	-0.178071167744	0
14.161016743654	-0.72559708689	0
19.011498044983	-0.834202892304	0
16.760433281999	-1.263698818643	0
17.280361389946	-0.931704507314	0
-0.627742252535	-0.296285438777	0
-1	0	0
-1	-0.5	0
0.625738545692	-0.228405936136	0
0.5	0	0
3.313957665883	-0.865581185485	0
3.619156095452	-0.800599314657	0
[...]
CELL_DATA 986
SCALARS 100.00_0.17 double 1
LOOKUP_TABLE default
10.55870280996 9.2967745029568 8.219780895659 8.3540373693605 7.3785080824501 9.5919700368538 8.4636583918526 5.9588830122569 10.237827322026 8.4778692600063 8.327186713015 10.394606069307 9.0403741485401 10.340203486908 10.069878689727 8.6889123412554 4.976231664601 8.039562191893 11.334792474824 11.625517405481 10.118916467454 10.417773660552 11.54595009031 10.003895090115 9.6287459812118 9.7899349473402 10.027485765956 6.5262334054596 9.9576072704962 10.182900767335 9.3255258696914 9.6526806018866 9.5272829039871 10.83878788622 9.2378997957047 9.932339722142 9.7536572125837 9.4923412017944 6.9403852273963 9.329886833624 11.735187741076 8.2815248994701 10.180752830015 5.2974017521411 10.043702213435 9.8111008224585 6.8525944428431 7.7603634745793 10.521375245095 8.4276666075448 9.6650434064514 8.9313362869482 7.3666214966962 9.8997029301517 7.202969870489 10.657213907492 5.3232131641052 10.104685565905 9.5955205408095 9.1468705792868 9.8187807898663 8.9780545566721 10.190885315836 11.004071459593 10.547746100043 10.395149034085 7.8428320874341 7.8494637091865 10.204914285827 8.8105496969949 10.291300001443 10.679485882681 10.130608635405 10.703008169955 9.7616248836147 7.7333266870567 9.7587933258613 10.07988728826 10.19723529549 10.148319141978 9.2819527945736 7.3155001425245 10.846529085884 9.1581609410604 10.891568862899 12.195203642879 9.6066408184541 10.653836187745 10.399584758916 9.7966833211122 9.9445460868308 10.507780504327 8.8927245780828 9.4683503153359 9.220143555221 11.329545197032 10.495112605472 10.805472375248 10.353965599512 10.988747756976 9.6242651569654 11.240490925881 9.6362652239986 9.7053040579763 8.3762906375612 7.5863390229663 9.6815504978661 9.3737264735733 8.4824868969367 9.5781699287417 9.1165771614305 10.374486902676 9.4202226825538 9.5452722962107 9.2084007277516 12.439738005947 9.3188499570436 10.801069686909 8.7584482696644 9.6942671889314 7.5253927515722 10.899226576039 8.403902213295 8.6445239215114 9.2718721455861 10.802709974216 8.5068224801726 8.6829054217472 10.574020418227 10.196951431752 9.4799408064183 10.684805944209 10.144401092695 10.239888557615 7.6007228230551 9.9837789668174 8.6049698319763 10.227335879563 9.3751996746009 8.1765750850168 9.8309593493828 8.4425943985497 10.534846215568 10.169930991779 12.753705084916 11.2099215217 9.4929122465468 7.0790853509706 9.1442040407435 8.0054027065674 9.9111489401956 10.10315415842 9.2714974111817 9.9745889647338 9.3183732533321 10.046207564066 10.354172986603 9.5778899300858 8.941275709686 8.8152420334101 11.269228871046 9.8680033762871 9.6928337408783 11.375520782396 10.484219504228 9.9981213977537 6.0572171804632 8.5967158655187 11.083727077223 9.0351443771851 10.980273783605 10.542673362736 6.2675122639974 8.3127549916075 9.9036996930678 9.3430393920911 10.796717232723 10.460648453368 8.7604694790638 9.3587521101963 11.3089671723 9.5913464103603 10.232914623121 7.0151584350993 6.9456391637753 10.896860711855 9.7571313268217 10.624018107776 8.8587895684886 7.2863751941482 8.0282442267457 6.0404850066997 9.1148899760619 6.9922400864627 9.6634111290542 9.5974970064289 6.9190147008109 10.145668985739 10.188991153714 9.2486114351272 9.9534161119321 9.0085487380264 10.198385388296 9.7747643450622 10.060242317367 7.8936271403842 9.5207112474523 9.3945853210794 9.7675847235952 10.567880899391 9.1539317187526 9.90340063038 8.886506349516 9.1961044758719 9.5200363901001 9.6634294433034 6.982678249596 9.4572270081708 6.3905537932675 9.046148162814 9.4932280124638 10.597235523937 9.8330732741746 10.975258753397 9.0503514984132 10.197241972424 9.8218002445749 9.1470893086312 8.4658314514807 10.825294316136 9.5124308089442 4.8816183884385 9.5420335017747 9.4052748203214 9.0719064332969 9.9805057777416 9.2918294757622 6.9550473042858 9.6340270640387 8.4710804054311 8.406822518384 7.95048953566 10.484362801655 9.8386825476591 9.1014380617315 9.6680708176917 9.7397049947608 9.187953444986 8.5494566923313 8.7133403211596 8.5236930350877 9.0132881249728 7.312439928545 9.3735198529934 9.7516654167516 8.8717637717014 10.446429069444 9.2596781392464 10.457272800376 7.4945684028638 9.2403722361351 9.0628300350195 10.449141389153 9.6731723134076 9.0181500883961 10.657111386836 8.5551775091979 10.994295026105 8.7752555949247 8.9668006970968 9.0256197106163 9.3629282797658 9.5761602306253 9.4198692954406 10.176869978901 10.211346882142 10.138678117252 9.9708198460318 9.9134448039376 10.003016140425 8.2149283223714 10.110176037306 11.477118364048 10.986222143179 7.2769733647899 11.462816585478 9.563964773426 10.743959832566 10.861280407028 9.875301790399 8.8571155146443 8.2532105248827 8.2130934900508 11.176373588215 9.344687394308 9.7343211476769 9.4689405217139 10.086320315306 10.217807796831 10.426062289712 8.2756814002597 10.954128465013 10.652173812509 9.4958390693584 9.1400871018776 8.1521178502691 9.4865490830604 10.116111435237 9.1624836778185 9.8929481028555 9.1497378848894 10.01623448143 8.9905169787381 9.3957986351236 9.2880231683724 8.2054150312885 9.936893915326 7.8191126213691 8.8341997529589 9.9267916220264 8.4920644574218 9.2118821937866 9.5773268711492 9.0972397567789 8.5883552164464 8.5472193718362 11.038611304976 7.236631564587 6.8305165990263 5.0725786853433 8.522228536729 7.7218937567419 8.8844412746953 9.247141160588 8.4713878364826 9.2292738613984 8.9891262614978 9.7689052407943 8.3244005053985 10.3887867182 6.5680387211066 8.0198743999633 10.900649279642 10.370112833834 10.170092931279 9.3310122798244 9.64185971448 9.5759528186822 9.4730614511094 8.9809896301331 9.6275169269162 6.9966056733885 9.1810304376125 6.860114247042 9.8275873014347 6.5725572386398 6.049202882123 7.6784542597643 8.97362144066 9.1558612998968 9.3438945561509 6.2974648530943 7.3478112120269 8.7318077925086 10.004959893944 7.3998996735492 6.4444607146265 6.3625853521733 7.0998514607498 10.251589987274 10.872035605716 9.1335159876217 8.0815503001404 7.2229581133756 8.4294946539235 9.5506152566156 8.0110694536106 10.526435968127 9.4064671587185 7.4811452731606 5.8929379743621 8.8833677724782 9.3430221617515 10.523710148622 10.28907296221 9.8259314374955 9.1241565238607 10.496675019658 7.2453068091923 11.623222171203 8.6787921225739 8.3863269956283 7.4390084078523 9.5180606430325 8.4265085154263 10.418670582618 8.6016589769747 8.4274930018598 9.9780068383477 9.1309193412984 10.529467654727 10.426565791782 9.2995156019113 9.1811560244165 6.8340188202692 10.618030702274 7.4338704340877 9.467025584822 9.6824721481173 9.5460050733851 10.351637192596 9.0015710358072 9.4219102092258 8.0901853609123 9.1504405430882 8.9665518585985 7.7845341269187 7.4225303916496 6.4695758402663 8.3196218882007 6.3179792542682 9.9484568149232 9.0649047221263 7.7328780494973 7.7681675130956 9.3778155698901 7.3961022055754 6.9527491536225 8.1853209716014 7.0161554555715 7.7346511996751 10.228247753272 9.1808531047778 8.9884804354989 9.0725976447793 9.4627089525303 5.6330924804568 8.1819448091516 5.405382206696 8.3060628705995 5.8569975928209 7.7800884961276 9.5138479114404 8.9072937698333 6.5769883286017 9.3890743101272 4.8649316485332 10.035096151508 7.7448897376613 8.4197768959103 10.458806591723 10.350920732759 9.817244214217 8.6945875679506 5.6748931342695 4.3075053311363 8.231086189434 9.6286419033509 7.8234321957546 8.6386340801774 7.406198294687 9.028708748053 8.127949396524 9.2502628924966 8.4375244930343 5.5268080567134 6.1358243949328 8.6386507881519 6.4519229260217 5.5062424903682 6.7343761291259 9.2096816760847 6.8521748655026 5.6042395898941 4.78178428686 9.8205685469538 8.2310535896794 8.864720711434 8.1345834675385 6.1018093385836 7.9035748051827 6.2414800668982 6.4965890169517 9.9428567387871 8.2749032201877 8.1513293277497 8.4909047880298 9.8963873500702 7.2509536655428 9.1554439553552 5.2706647887586 8.2043062289912 11.122549942665 10.686768681578 8.3754746516734 6.6141804203323 5.0625816841501 3.8003777315551 7.553435010685 9.7383446846314 7.4798407989206 7.0900281798586 6.0525101486226 7.2159757982354 7.9802164191535 9.6183463738894 5.7070200924593 8.9550242339131 9.5535454192129 4.30125858345 8.4682619035743 10.580991569599 9.7687992011204 5.9284515518399 7.8895786201937 8.8349355591022 6.9502596932925 6.2529103689625 5.478851602032 9.6225653593065 9.3886428920925 5.582610843862 7.9024218024879 8.6861571952738 6.6134128776135 5.8182930157815 5.182662079715 9.4140281268406 8.4214416372977 9.1247912427332 7.3288232386466 8.9134583301632 7.9060361235516 8.734976715964 7.1301709406098 8.7873912744913 9.2056720345013 8.7847309020128 5.1294692628479 3.2708039914792 9.9343112959149 6.0057652199354 10.327125390754 8.8324738116036 5.8510122684716 9.0440828091632 3.861218920994 7.3233473110687 3.2887620011634 4.3893447311926 8.8337633106448 5.8923643261867 10.244674052582 5.6448147495536 9.3673210083489 8.5078547666709 6.1965833021337 8.8861626871407 5.1857651202805 6.1599318635661 7.570492892668 6.673409730098 7.8330294339669 5.8085323381164 7.2987817645303 8.8962968939262 5.3898301111619 4.6352530601704 8.3095807526176 7.4769495927126 10.595528917897 7.8551152156438 10.104992210136 7.08043457963 9.0706148666324 9.1648989651325 6.3655791456184 4.0947253339381 7.9529981964785 7.0464142541225 7.1578434612217 7.2403324952154 10.503854930834 9.2466788111102 5.2435861095848 8.9774792164442 9.5485228666673 7.9726314375355 8.1047360837015 7.3387906447609 7.8324477040393 7.0712267207053 4.0880749373717 9.3853472387705 4.1781505312754 7.9395861329333 8.7882587111379 9.4547439619197 6.1930004105975 7.7289083427979 8.9288452391913 7.7951119676554 7.2957567298379 6.4316585075664 5.147644782399 4.1270912656997 5.1856463934505 7.5065159195626 9.0086606753899 7.1510135565975 6.1131515619236 7.1520873871553 5.7350540505798 10.384162448197 5.5467150654669 10.099805936219 9.3047280402683 3.6124974197793 8.3046134448804 8.7180276743102 8.9726064167726 8.0952224510169 7.0529525318608 6.0683163137106 5.9979463336276 5.8163203965628 7.4484595635214 8.8229012926504 3.9699321909564 5.1285458067725 4.5192518376352 5.5893530620068 4.9192187812819 8.5371256367113 6.5496706396126 8.2725323690613 4.6908860221986 4.9290191604343 5.8246386541062 8.3272679565388 4.3681479656934 4.1147888636497 6.8096931111054 5.7648619694728 3.4526100549452 5.8063976558159 9.7752970262282 9.0795072720579 6.9440391068678 4.6577223985853 5.2687515723926 4.5468002707335 8.4744513768998 7.1933919028577 7.5578018751482 6.6544657443914 9.6988474055725 8.7893886330711 5.3705974879434 9.0713991866433 5.8063881465033 8.6878550487368 5.3803985901285 8.01061938992 9.3418885530336 6.7958100662709 8.4254180504636 7.7485678477623 8.6673365988593 8.9893081913406 9.3280118792041 7.4722895805535 8.7828850083068 4.1311634844887 5.5987150914544 8.6821072862143 4.0323021647763 9.5661019391946 6.8471223352557 6.4455515126238 6.3518160545133 7.3038869067946 5.6390786049085 4.9290189961683 4.8849241911864 5.0296751980365 4.9828863878993 9.2031042336858 10.803674515365 9.9976594306599 9.3747296937823 4.1298302887003 3.0504219670478 5.6276470852062 6.0911494476248 6.4090417153201 5.5576113121192 5.9699118051138 5.118772198849 6.3998370430279 6.5986820929262 6.4458651270853 6.2652999811309 6.5205523090344 6.2574523908534 5.9546675226265 4.6399934107733 8.4444575162555 8.1383031918569 4.575536099815 3.2410704338631 3.1637983751951 3.5303587203574 3.9109848859924 6.8419787512663 6.2964708181422 7.8486760763459 6.349487141661 10.892991031831 10.558834299939 3.954937989766 4.3567520875641 8.6623675707409 5.7126313600435 3.8336028948324 3.8032467171223 5.2634090231288 7.2280173599106 10.187734803214 7.1152243270946 7.0515465651644 5.7876745381666 5.4712884108295 10.137681459927 4.630369336945 8.3911709909499 10.727734141661 5.7847006866844 4.152636222877 8.5221974269443 8.2584436612797 5.2684522034891 4.5626288911864 4.4944318363648 6.6032210830554 3.377226887442 5.2505974926937 3.4796236173798 3.4573007608046 3.9777010153395 9.4919704749316 4.9560958327105 5.5639141748962 4.8174669722271 5.2094761885528 4.5208539791107 6.0298378626104 9.9517734094233 3.4905590419799 6.1028657486629 3.0384479612664 3.6991621771789 5.1335753801045 4.4093433541221 3.7898201734451 3.5218683183998 4.0627178359408 4.1255738683432 5.3079358454301 3.5771359154249 9.3503672359627 5.0866891266375 3.4988045962464 4.0275620631404 4.7960434541619 4.7541309567128 7.0483419177035 6.7183742373088 9.5689377826162 7.8638978819145 6.3677098783835 7.283273694946 5.411503894361 6.4378217268188 8.4110127722352 7.5001244204401 4.9908896764825 5.7998487411964 5.5119560945085 8.8572182311679 7.2825220566071 3.3714919883489 4.4323090099411 5.0399225718229 4.2776964214334 4.4674700570885 3.9547412864683 4.0882195668781 3.6930348514655 4.4626018382023 3.6896656483644 4.462074971831 4.485630753455 10.304374231545 4.4160863963242 5.3831604215236 5.1377463311305 10.089280130284 7.8078705868486 3.3930886878399 3.3203501772377 3.3605620285756 4.336481022972 4.9405887366306 11.484965492708 3.6767406363989 4.1350251497161 4.339621885929 3.0853200402923 3.5587138998299 4.959581333762 4.0406611747195 3.9062388542744 4.0603931013846 4.0579044272312 4.0519404969706 3.5121783411986 5.1115727464553 3.368320946696 3.6437129814336 4.3170023041746 3.3073964972621 3.2370155589719 3.6252687637423 3.280934384668 3.4882615745977 3.4028154751669 3.5012555463144 3.4222504018074 4.3977252812644 3.9626853192309 5.3207571965223 5.6987122201916 3.276951806983 3.0665317797592 3.0647328705597 3.4363019591962 3.0043957962412 3.1174084966248 3.201883510117 3.1455820440028 3.4772173099098 3.8136074712669 3.3482948055078 3.4655729773329 3.2378964232521 3.341591553648 3.8039683230187 3.7723452165758 3.2018268515046 3.2199678969726 3.3186425350532 3.0884802546237 3.2129607780005 3.2992329427163 3.309283952135 3.426430862693 3.4060939914232 3.0243123423484 3.5040225340228 3.0784212919468 2.9500673475411 3.1373608980927 3.5170739544073 3.1356216153535 2.9799996812667 3.1910869022607 3.1974690533392 3.2551221628471 3.2759242047759 3.3531867367352 3.2542541169364 3.1975441019309 3.5015724991296 2.9725773195602 3.4818765953128 3.1720373391507 3.0848864110049 3.2215952030337 4.0373436277427 3.2889937971258 3.0698617818472 3.1756035272228 3.6133173101469 3.244203462296 4.2132980408729 3.1568076086145 3.1930565382132 3.0356065666833 3.0475322294728 3.2040498994448 3.2367346491586 3.5946222314461 3.5469439350178 3.0317017209101 3.3157568489724 3.2709379372011 3.1859706846294 3.1834580862544 3.2835111218839 4.0537012286927 3.3406461172901 3.2661664924002 3.020125800668 3.7461284692673 3.1983108196365 3.7088388986141 3.3256628678359 3.4901325106912 2.9957640830171 3.315281448404 3.6372456851615 3.0752628115508 3.4805820418497 3.7270166961584 3.3968842962189 3.3404022127863 3.387502215792 3.6517907167738 3.5436443596221 4.0753816656102 3.4669611797884 3.3237068692666 3.2732064181013 3.1049402815019 3.3826363560093 3.3041392483504 4.1174552522399 4.0297178918162 3.416524817233 3.7056319188186 3.6782506191087 3.6436201393173 4.306011937926 3.7802874957414 3.5684429352193 2.9611988908492 3.5177783005281 3.6808962091992 3.2720951152452 3.3192895063092 3.2618374882246 3.899578971244 3.4255273603919 3.632486518048 3.3200116958191 3.7002645238864 3.5858472647006 4.0082472492418 3.9366189087968 4.410264120711 3.8462193059147 3.8261194269723 3.6842968158757 3.8556190551114 3.9176048893262 3.7491699707341 4.0603377601005 4.157793204116 3.9668008086468 3.5721654671227 4.3789550133749 3.7566431134878 3.2486339371759 3.6707910859785 3.9425007949248 4.3282323050597 3.9747502557295 4.165308208635 4.4925176070761 4.3926563366658 4.5242663550893 4.5713703818294 4.2884330387018 4.6436539583735 4.557296794969 
SCALARS 200.00_0.22 double 1
LOOKUP_TABLE default