# vtk DataFile Version 3.0
d-2__ created by libgimli-v1.1.0
ASCII
DATASET UNSTRUCTURED_GRID
POINTS 570 double
14.5	0	0
14.25	0	0
14.386963504964	-0.201738469428	0
22.399299936458	-0.310870122736	0
22.129824335287	-0.229914148082	0
22.126320781198	-0.518791771445	0
8.472303742627	-0.591754876635	0
8.780507935475	-0.76092407121	0
8.82173151259	-0.349253271447	0
18.663262297679	-0.667179415955	0
18.934786529245	-0.453308328646	0
18.636898038907	-0.29588182328	0
4.016904362632	-0.85330676142	0
4.076038737616	-0.331410355179	0
3.713721571226	-0.470767763626	0
1.89953779852	-0.269343012166	0
1.633800503821	-0.203067612233	0
1.644492760828	-0.441295523531	0
4.368408037607	-0.250833874131	0
4.337474161742	-0.544420985055	0
4.67745607622	-0.378433532554	0
1.406172533733	-0.772361039307	0
1.913288206557	-1.218576310882	0
1.90687689783	-0.651895683444	0
2.5	0	0
2.25	0	0
2.347047126858	-0.185539804102	0
1.374000926997	-0.300418771701	0
1.25	0	0
1.114902662369	-0.201591505098	0
1.067401015567	-0.470108640981	0
5.75	0	0
5.699780065382	-0.324747799653	0
5.924584257371	-0.172748359932	0
0.883560935405	-0.231136840652	0
1	0	0
9	0	0
9.117836368049	-0.253904480787	0
2.625577516194	-0.346770599322	0
17.859079774019	-0.943547525024	0
17.535029634209	-1.703182852412	0
18.338018094476	-1.366069799339	0
19.932263871771	-0.826489183604	0
19.881635677668	-0.346204516721	0
19.622287080959	-0.573770479943	0
1.5	0	0
1.75	0	0
23.25	0	0
23	0	0
23.109690227386	-0.220340974338	0
2.75	0	0
2.142562771237	-0.172460438312	0
2	0	0
23.332392704446	-0.202507275941	0
23.5	0	0
19	0	0
18.75	0	0
18.888143078348	-0.195773419804	0
2.90152418742	-0.185685383897	0
7.612175045312	-0.180627982114	0
7.527150943175	-0.401430797998	0
7.881917737402	-0.30462800112	0
25.630635194756	-0.512020961038	0
25.243766894324	-0.80097755811	0
25.758031115142	-0.952821630144	0
3	0	0
28.84859809239	-0.201276387394	0
29	0	0
28.75	0	0
4	0	0
3.835807353334	-0.199536243303	0
3.106904732949	-0.178783649348	0
29.25	0	0
29.092446172194	-0.305987136665	0
13.5	0	0
13.667851890428	-0.185102765244	0
13.75	0	0
3.75	0	0
14.407363653886	-0.441423674912	0
14.125469935998	-0.279652141152	0
4.25	0	0
5.061980176718	-0.407989246181	0
5.335512032876	-0.269401530321	0
5.113979852892	-0.173834924157	0
11.882046000841	-0.812345557852	0
12.478640631525	-1.146569360669	0
12.244190771573	-0.565936619511	0
3.633270844505	-0.195395238442	0
14	0	0
18.378272976509	-0.514977451159	0
5.5	0	0
9.619519097921	-1.16461851757	0
10.030576753886	-1.587265312651	0
9.961661342999	-1.070235523667	0
5.25	0	0
5	0	0
13.157975569138	-0.830425793913	0
13.83833027638	-1.238601004239	0
13.671302359608	-0.710707966059	0
11.325917093147	-0.8366783502	0
11.612143285947	-0.506264798476	0
6	0	0
7	0	0
6.83842404292	-0.188923754932	0
7.11236984822	-0.391746146843	0
6.631875629497	-0.169178192832	0
6.75	0	0
3.21002197083	-0.595267231049	0
3.445510026908	-0.608065324465	0
3.362318141622	-0.306501255187	0
6.120159502895	-0.164221934939	0
4.538525595924	-0.906226152762	0
13.233775457127	-1.737244787017	0
4.5	0	0
16.138065841822	-0.472802517973	0
16.126746690205	-0.221608117926	0
15.859319180798	-0.326402762318	0
26.080401003391	-0.227842452866	0
26.25	0	0
26	0	0
3.019224421113	-0.401469974918	0
8.234901607028	-0.35771789179	0
8.518285578354	-0.242327591839	0
8.328777073389	-0.153008859619	0
7.25	0	0
7.400656881666	-0.195280611572	0
7.5	0	0
5.385509485898	-0.709154879541	0
5.948697127931	-0.745234910621	0
8.75	0	0
8.5	0	0
8.25	0	0
2.214249105773	-0.404278959534	0
2.896561357202	-0.792481120253	0
9.25	0	0
4.920911116561	-0.192028847294	0
9.651670336652	-0.200847798694	0
9.849824537955	-0.19917205686	0
9.75	0	0
10.095049354068	-0.315754204277	0
10	0	0
3.25	0	0
6.738406513564	-0.710129601907	0
7.121614580011	-0.943026074581	0
11.345829942703	-0.314788260019	0
11.25	0	0
11.104427225455	-0.188863495516	0
6.052412255932	-0.372556729023	0
6.373371846535	-0.274163514827	0
10.25	0	0
10.380281579003	-0.241092027437	0
10.5	0	0
10.75	0	0
10.909079077441	-0.189427130481	0
11	0	0
6.25	0	0
6.5	0	0
4.75	0	0
3.5	0	0
10.672815698565	-0.318467932684	0
10.772487906066	-0.787092734739	0
11.020900486567	-0.439266778492	0
8	0	0
7.75	0	0
11.5	0	0
11.619450354737	-0.231443672836	0
11.75	0	0
8.139317726831	-0.163309591658	0
12.25	0	0
12.158949464947	-0.235415698299	0
12.412455385193	-0.275030800337	0
12.929165084344	-0.221336108042	0
12.686337592177	-0.258437422252	0
12.900449535554	-0.462768612232	0
12.5	0	0
9.405755833308	-0.325979504745	0
9.111697192308	-0.594170467817	0
9.457257345083	-0.753685223931	0
18.101369157139	-0.618560521812	0
18.336839281097	-0.861122419318	0
10.385948631267	-0.570640149046	0
9.5	0	0
13.411260455969	-0.342646276848	0
12.643108055516	-0.590179775368	0
13.137744715761	-0.195204172124	0
13	0	0
21.25	0	0
21.358341816502	-0.326561417551	0
21.5	0	0
13.816492716597	-0.40394453634	0
20.25	0	0
20.423452336785	-0.313445603959	0
20.5	0	0
17.789350393153	-0.390447709085	0
17.987794057246	-0.401472255242	0
17.881276545163	-0.206424156589	0
19.564465692234	-0.270867872644	0
19.290725118801	-0.49926248604	0
16.392319441256	-0.29915360323	0
19.443730892406	-0.923508713428	0
20.457987075478	-0.803203365193	0
20.167450719332	-0.505159975143	0
0.103762538371	-0.253013629949	0
0.267057015134	-0.483604909932	0
0.374713194419	-0.2320817565	0
13.25	0	0
17.415572543912	-0.230682214253	0
17.5	0	0
17.25	0	0
18.108153655084	-0.208141099276	0
18.25	0	0
18	0	0
15.75	0	0
15.544586046819	-0.246453491997	0
15.122708481244	-0.193620038745	0
15.25	0	0
15	0	0
19.75	0	0
24.149237782749	-0.319013340846	0
23.842766599446	-0.577371105011	0
24.183995039967	-0.73159476451	0
13.871646321742	-0.17394291424	0
23.862588150518	-0.245417872715	0
16.84024277193	-0.203626765466	0
16.704049384397	-0.435508179396	0
17.112673188265	-0.38804641709	0
24.75	0	0
24.832880292394	-0.290571430318	0
25	0	0
16.40158555625	-0.755912194683	0
16.850299990829	-0.757941865332	0
17.75	0	0
23.567455674596	-0.325197491724	0
16.25	0	0
16	0	0
22.645812614293	-0.197864648876	0
22.75	0	0
22.5	0	0
16.75	0	0
17	0	0
24	0	0
26.914424714815	-0.337869958787	0
26.621963281699	-0.624626679172	0
26.977877660759	-0.778408201088	0
26.622424322919	-0.264588309935	0
19.34462271879	-0.199329831305	0
19.25	0	0
19.118057075065	-0.225686869553	0
19.5	0	0
26.75	0	0
27	0	0
27.5	0	0
27.604422363523	-0.298869962794	0
27.75	0	0
17.650384190064	-0.227839036584	0
18.343198956448	-0.236734208617	0
18.5	0	0
24.25	0	0
20.143897114391	-0.233773711865	0
25.5	0	0
25.25	0	0
25.344389320279	-0.31693710653	0
21.059546193318	-0.24845941382	0
20	0	0
25.842927934822	-0.248287716678	0
25.75	0	0
25.613904645132	-0.216025146631	0
21	0	0
11.763551406169	-1.481607093928	0
30.981104050195	-0.5526690913	0
30.873880294509	-0.217692518774	0
30.706626759758	-0.34945139905	0
20.75	0	0
20.85240828135	-0.178025243856	0
23.75	0	0
20.66289882074	-0.189089155251	0
30.204950808504	-0.791758966623	0
30.715535843381	-1.149995259266	0
30.543724897762	-0.572259098027	0
30	0	0
30.180216671806	-0.343473673313	0
30.25	0	0
23.229584388362	-0.458653998547	0
29.5	0	0
29.623391954444	-0.322069028408	0
29.75	0	0
21.618913855927	-0.233585823579	0
21.75	0	0
29.348490380579	-0.521100538161	0
29.36294710412	-0.230601226356	0
22	0	0
22.25	0	0
28.25	0	0
28	0	0
28.129259193923	-0.314252106503	0
28.44374413871	-0.484576386004	0
28.100199615755	-0.812038297775	0
28.649230646972	-0.871769248311	0
28.618403654115	-0.227691192115	0
28.5	0	0
28.387848605749	-0.205892081491	0
29.054768525933	-0.708603081552	0
29.344906532636	-0.846887322836	0
26.327430876245	-0.35930637997	0
10.349120516034	-1.04150119828	0
10.894920134778	-1.514321070539	0
24.59640839418	-0.191760546865	0
12.75	0	0
24.5	0	0
13.102881121377	-0.411296235356	0
25.099388239946	-0.214879887129	0
25.97986022697	-0.52841375324	0
24.398993403151	-0.196312410538	0
17.860840746535	-0.577367743328	0
17.566481510048	-0.529340016102	0
26.5	0	0
16.637148248735	-0.188015807345	0
18.183918302467	-0.396443618316	0
27.159348252167	-0.205297590358	0
27.357530053515	-0.198815038154	0
27.25	0	0
15.060354649709	-1.112587998155	0
15.51532665618	-1.043792149387	0
15.178150912169	-0.713100616689	0
10.051363365948	-0.719159376333	0
14.661248691948	-0.27865166374	0
14.75	0	0
27.868836823455	-0.217301839861	0
31	0	0
30.75	0	0
-0.020273477909	-1.415389842481	0
1.054972770973	-1.487485199502	0
0.512583677021	-1.0438154777	0
0.75	0	0
2.361419414365	-0.794513604096	0
29.890297721653	-0.2433406165	0
30.473599299501	-0.238575611274	0
30.5	0	0
30.660802173874	-0.161931182737	0
28.783812899585	-0.467926883932	0
4.937022539393	-0.72440615077	0
6.696914540879	-0.380672503721	0
7.434272221796	-0.695675918868	0
15.339606453815	-0.166204802571	0
15.281953315711	-0.388999642276	0
11.893544445085	-0.335972898148	0
12	0	0
9.753796445798	-0.478866225926	0
7.720012958977	-0.638314519759	0
21.871398197179	-0.313006985103	0
21.615176662754	-0.521922347305	0
21.856785525528	-0.665128848631	0
20.792152536902	-0.448319093295	0
21.109577821412	-0.527879642114	0
21.360297691811	-0.734200004244	0
15.547854961707	-0.580173571081	0
24.496861814148	-0.467031445896	0
25.067351422649	-0.463427753535	0
24.81263825963	-0.684738154192	0
22.865620821195	-0.218348593093	0
23.443705587002	-0.773171720633	0
27.277617447467	-0.489224417775	0
27.863714790534	-0.471681393437	0
26.239117668995	-0.863279739365	0
29.896797054636	-0.547765129844	0
29.612773839625	-0.699757135752	0
29.867172666547	-0.87444432816	0
29.610354212963	-1.521444655905	0
29.59548165142	-1.071765512911	0
29.115129171034	-1.220660174798	0
31.345359428525	-0.458952144926	0
31.144859415042	-0.241304201582	0
15.919565295974	-0.746550096707	0
16.063006820294	-1.289595303187	0
16.5	0	0
14.900855313538	-0.178071167744	0
14.161016743654	-0.72559708689	0
19.011498044983	-0.834202892304	0
16.760433281999	-1.263698818643	0
17.280361389946	-0.931704507314	0
-0.627742252535	-0.296285438777	0
-1	0	0
-1	-0.5	0
0.625738545692	-0.228405936136	0
0.5	0	0
3.313957665883	-0.865581185485	0
3.619156095452	-0.800599314657	0
[...]
CELL_DATA 986
SCALARS 100.00_0.18 double 1
LOOKUP_TABLE default
9.0556513654506 8.0731137081859 6.6123414641858 7.0292689553048 6.076898490259 7.8850676272303 7.0734907425721 4.7292217349381 8.7040201434644 7.637370955324 7.2834998442061 8.840108366926 8.0799217865409 8.9547723499803 8.5792586322646 7.9329719160946 4.0305436641675 6.6538053548479 9.4303169183105 9.5905700189439 8.8099908848362 8.8561782415105 9.2763361238302 8.535807705233 8.7776793270451 8.5201121711412 8.2336017207699 5.4985751840289 8.7935281572696 8.6408910063129 8.2115912167428 8.4519800741062 8.2023277264255 9.0911524958513 8.2913798352564 8.3038345476269 8.3397918386412 7.9216249404524 5.6256835294445 8.2807610627351 9.7715646236811 6.9345569749649 8.5182678336923 4.2462090281366 8.4722050619611 8.4053481116992 5.4571820208379 6.2699848492878 9.0584875369183 7.5694918003055 8.5316376779957 7.9736269481686 6.0343270999126 8.6863062975947 5.8371188959293 8.9423153563588 4.2886251974219 8.7769665843397 8.4175538696877 8.1944321913678 9.1141446810061 7.6220947258005 8.4203131203694 9.1236013279199 9.2123539833293 9.0449298482041 6.2856260041966 6.4988757909578 8.78999263949 7.5416099690544 8.948900776479 8.7277569323264 8.6833588486676 9.0271069190481 8.1881176643915 6.3108625383415 8.5258128004053 8.5872425855227 8.9531804327368 8.9116014847519 8.116638962856 5.8664771764626 8.7921401139877 7.9125472777495 9.6546137245337 10.124566213307 8.3776685800456 9.3310200661302 9.146575977279 8.6610253630439 8.3752055149209 9.1907706603968 7.9311300738078 8.3856529768163 7.5032078105022 9.1680151338591 9.0981817910582 9.0563308118152 8.5175511236029 8.8357530861251 8.3488448148271 9.9106467372935 8.3591217831284 8.5131742646384 6.8531953036472 6.2729454920057 8.1202328671494 8.2450095164087 6.8690080183966 8.3239772929183 7.784525258166 9.1022508267298 7.8967696350508 9.0851164991653 7.475859526934 10.446126194241 8.1706209858322 9.0885691524898 7.3689024728549 8.435993730024 6.1721855399415 9.2001036762934 7.1267610582225 7.2841469334155 7.804549615487 8.7959228656673 6.9941472011049 7.3718078142619 9.0792931889811 8.6249845306037 8.6267015312703 9.7725807447514 9.3936692492872 8.3579350715133 6.3936378208558 8.3892182667408 7.4380036510917 8.6578840570838 8.8849867322042 6.7181842147188 8.9365495170384 7.3122569123985 9.4839009553757 8.9011796908363 10.397726882934 9.4806889311329 8.4536598088985 5.935682882188 7.9704534639922 7.0228333590115 9.0496686026222 9.4509556496631 8.2426789845712 9.032951399772 8.3785250084719 8.8677177903882 9.0880191513185 8.4314125789679 8.3976366975799 8.0246431249245 9.6186061277526 8.3891691930597 8.97549605859 9.7788754505996 8.665169178032 9.3213029622879 4.8325496036617 7.3554688188256 10.507684538386 8.436673893421 10.056564272252 8.490236325642 5.2013309097266 7.3227622337495 8.3195469255431 8.272127550936 9.6798875928909 9.4871062537251 7.6098366151877 8.3477535172692 9.5841764860912 8.2498446038831 8.7854590100534 5.8601009614406 5.6507885491438 9.3720873645482 8.3412967544907 9.1476618109961 7.6209945669431 6.0244505111269 7.0871676462061 4.8249085514248 8.1813051187528 5.7292529636067 8.8957398632787 8.4769790149344 5.6278739756412 9.0385878197331 9.3050751964474 7.7125785590608 8.8005690010871 7.939317853184 9.0206813886705 8.9321726231221 8.7002149463745 6.5600021699377 8.6095279282635 8.2465185193087 8.5747478682786 8.5835682623382 8.0818994133085 8.5880276962189 8.476080812483 8.0403408638676 8.3568250449292 8.5194315742927 5.6291929336744 8.2723515530362 5.1223242419605 8.2501005912854 8.4361101387576 8.8154807598792 8.8416530292777 9.6239657861906 8.2219024075087 8.6471767621932 8.3461717937491 8.50846793184 6.8599679983483 8.9507540866113 8.5474619144572 4.1469206868193 8.5441743615267 8.2241842809238 8.0039217764292 8.4542398248051 7.7340177662854 5.5326940421674 8.5760508517911 6.8744576564 7.3420035749261 6.8263141134788 8.8113445619781 8.3218912373915 8.295342137663 8.3321420948449 8.6261640068428 8.2758469139965 7.1371320863701 7.6274382126308 7.3281084322047 7.9958815747038 5.9368702737668 7.8692697560402 8.4446291376022 7.7363546791002 8.9986804739033 7.7122521486135 8.5673569106496 6.0121345805256 7.959227525521 7.9442583243857 8.7862653007588 8.1483219804255 7.7523377037545 8.9003219108194 6.9928347164115 8.948901779634 7.9100048813549 7.8328875353813 7.3459398309883 7.7423048216306 8.3031123842252 8.260010979867 8.430583155195 8.4166290907742 9.1656753606913 8.7465784929113 8.22903044173 8.676904984741 6.600050520152 8.6987526821583 9.3712788378956 9.0713462797065 5.881410737915 9.4962251576094 8.1091592860519 9.1548208682113 9.5337890155425 8.5483823842631 7.1894563701643 6.6716749104549 7.0720938783004 9.1676837105994 8.2734407571369 9.2860807406586 8.3487479786378 9.2238416625693 9.9832270558464 9.4098408496072 7.0650103671828 10.130178501442 9.1414889087353 8.1187840147007 7.7240256811914 7.0088119168657 8.4905014547318 9.2103264934639 8.1621830691378 8.7031441168554 7.9307850109508 8.4508094557554 8.4279549337224 8.4277813389685 7.8942135013908 7.0072930666795 8.6341856420853 6.5491888995552 7.558263070354 8.3810331387465 7.4981704019101 8.2534266316748 8.4888778680305 7.8254440535184 7.6347865162639 7.5351672170141 9.1289828580514 6.2588828741123 5.7078642965641 4.1941183204868 7.0106931077806 6.5697323031956 7.8161889508239 8.1923237212342 7.3732112476803 7.737895372051 7.5559988293468 8.4168994404313 6.9084597566308 8.7016272621116 5.253685434726 6.5562654566598 9.8663428343181 9.4801388947503 8.4151705837258 7.5927697304791 8.8176599312208 8.9041460692183 8.4908465755725 7.6965782870378 8.2666064715307 5.6855292720973 7.829062479984 5.4748345046319 8.616412698468 5.2620351419133 4.7619700472723 6.4596648568912 7.14092252724 8.130179284166 8.2638331819687 5.0466774243851 5.8632495507326 7.1071402201273 8.427098341094 6.0316723281691 5.1680628498 5.0418429038236 5.6217160217865 8.5802474726144 8.8385154853529 8.0809586237222 6.6901676908039 5.8176174966714 7.0623759457448 8.1067130190248 6.5702114790111 8.6971895971415 7.6942409534648 6.0575785068224 4.8090902164953 7.6202728727686 7.5667346530655 9.1265860642258 9.0618736874349 8.5223192391474 7.7237907080432 8.5755428909673 5.8249712837392 9.5826172588682 7.0962975241594 6.9315955643534 6.1128346105327 8.1770688631619 7.0044304040256 9.0987483255511 7.0986870356297 6.7879382701428 9.3368375872392 7.721795993595 9.030807773514 9.3788366829959 8.1887253848945 8.0937629008378 5.6781963907615 10.114826575714 6.0884807020813 7.9874456586835 8.2895750127968 8.5425821692845 9.1501956712776 7.5940050776666 8.4404273021647 6.9409148023075 7.8188805732604 8.309636266784 6.6226341218471 6.2409066889235 5.2909599978899 7.1042384601244 5.3561839466781 8.628576080894 7.7100343204022 6.5027985032535 6.6503891392366 8.1778089529762 6.145494181603 5.9776488911001 6.8475591916082 5.9783039621839 6.4252832516855 8.7444890023763 7.8789608816916 8.0332204945912 7.213405368413 8.0050762836375 4.6512954849201 7.0483249680731 4.4515083942608 7.2174641251015 4.8656644032328 6.5874664335371 8.2026389696687 7.6403429825294 5.3108687882261 8.0252458664423 3.8971445037368 8.8765074709827 6.4409929646951 7.1330042643147 9.3291751058025 8.6137838856698 8.3354512044712 7.2715400080976 4.5837678906632 3.4829084030606 6.7913479785221 8.0034052915625 6.3103447998419 7.5865881157057 5.9600051876887 7.9563405724444 6.6921723176416 7.9257956590296 7.0592624003157 4.3971187057448 4.8566585469145 7.455446406631 5.1993077512434 4.3494146642016 5.4570447732637 7.6882762944529 5.4993254415197 4.4506380626914 3.8131759273169 8.2781565251789 6.6565815532564 7.6731756370895 6.7059427309303 4.8215738318103 6.4817257251187 4.9483158754995 5.1902645348619 8.1795841798352 6.6733113563436 6.7161146198899 6.9740241624407 8.5351471589787 6.0243229229161 7.961089605073 4.2672772820135 6.8831075883119 10.179087177908 8.8053125527977 7.0765915328813 5.3094743084658 4.0431520710983 3.1724427908119 6.2166894321589 8.3300047852261 6.0747839828067 5.6252707515652 4.8082611088001 6.0294205366246 6.7980056588024 8.37285839578 4.652593119869 7.7251842083009 8.4497417273587 3.5365877996939 7.2710639248936 9.7464020172952 8.3483843150649 4.8501100565636 6.7271393641314 7.8585150480193 5.7914245719755 5.1264973770799 4.465236901141 8.2170108707655 8.1132472935038 4.5398548864425 6.7370285480483 7.3849974230369 5.4433963305793 4.8325564023915 4.2262793156058 8.0158740988855 7.2923188698849 7.5120880770566 6.2061436642515 7.094658303428 6.7169235052869 7.6805659544035 6.0060808182973 6.9685950251512 7.8375037272788 7.3745716641418 4.1080972202316 2.8352404520638 8.7626695412558 4.7915984568191 9.573985454009 7.2916291352033 4.6746575442236 7.3667990749504 3.144819509496 5.9420751686665 2.8598009243465 3.5352187060095 7.5855555304596 4.6818019990548 8.2417198296384 4.4273836917074 8.1843666819553 7.3345046923487 5.2025573433407 7.6859723171919 4.0750658417899 4.8419708892567 6.2758622051091 5.3736288722822 6.3575569159916 4.6217467937706 5.8369996290746 7.2179848120394 4.2657238138452 3.704862954449 6.95494226148 6.0637630961075 8.8554847511068 6.4099636209012 9.1354379217559 5.6152782475563 7.5193982685841 7.7021837192571 5.1196684132144 3.3601319102746 6.6368632077043 5.9101782672423 5.935994899884 6.0726707267892 9.645222499135 8.0578703352672 4.204924372777 7.6078985552805 8.2185368969337 6.6590751705642 6.8895782870311 6.169044454534 6.7561932509701 5.997162883679 3.323859157812 7.4569606659608 3.4696361466954 6.4399285852745 7.3827646048944 7.7818104323089 5.1274263991979 6.4500392447393 7.5939359456903 6.6404258210749 6.1732526369474 5.1433433662943 4.0757287324466 3.3620764711885 4.1180321661986 6.0235370479703 7.6031063137111 5.7040589930352 4.8496227755448 5.752767745885 4.5291418558224 9.0036882389521 4.4813050253054 9.0586841838011 7.9928719589533 3.0664681932126 6.7897963231304 7.4309531025797 7.5953500842201 6.8584759171218 5.8281649603138 4.9787264184824 4.9246866774821 4.7714210984595 6.1294652067555 7.2797092202113 3.2441673933533 4.0339617477196 3.6109322921258 4.4015275556423 3.9152149877003 6.8517324117863 5.2952652306358 6.7762978508203 3.8079404291411 3.9918307952715 4.7052378957191 6.950165776977 3.5065190065145 3.3812286265236 5.4543820033562 4.637662791008 2.9783605734478 4.7302813945024 8.7999962782302 7.6426385490482 5.727472583214 3.7931212250927 4.2870217094762 3.7434230914503 6.9370761909202 5.9816468659059 6.1897280180198 5.518188014444 8.0334839448744 7.1248965615664 4.4467236909435 7.4215237065338 4.8043303851556 7.0847349931826 4.4414250680232 6.5400266188201 7.6205967248358 5.5595242422801 6.8984391369738 6.3297897033654 7.0941843213128 7.3818362322779 7.6961279758376 6.101664255961 7.2031069409748 3.3449475741307 4.4770831927454 7.5471868066636 3.324304504421 8.0139615229127 5.7081202525504 5.3200792300735 5.2398622538775 6.0860314715393 4.5917481086498 4.0274610800349 4.0200005803748 4.1771108861981 4.1291719658513 7.5431248175973 9.7456761541901 8.5391848456394 8.1521509544414 3.5156131602816 2.8077951558388 4.5150010560455 4.8681561853559 5.2717436503451 4.4751202734769 4.9212657751168 4.2294170262662 5.2355993473383 5.5060420079716 5.3139025275362 5.179086622749 5.3403396797802 5.1376256417273 4.8871732981296 3.9170788524248 6.902322301537 6.6508129557402 3.6743578013051 3.1105629931266 2.9442991984445 3.1553613218163 3.1983972795437 5.4701121844064 5.1599464677794 6.6071946565587 5.0416635978894 9.2369462119754 9.0097097521971 3.2815661563968 3.547262994921 7.3926014938532 4.7274289436774 3.236141540847 3.1121634126107 4.2615634221128 5.8766994341424 9.1395419863359 5.6721393110685 5.575582894981 4.6302916449578 4.386538408774 8.9685770137733 3.7224666277616 6.7286543118557 9.5641799511121 4.6317766219174 3.3644818153304 7.289606735939 7.1332271320585 4.2100965728886 3.6929529506869 3.6337465997431 5.2680853403351 3.4436077695825 4.1812036889824 2.9298691661639 2.9862643278164 3.3087725568311 8.375322015289 3.9928640478813 4.4757220818204 3.9097085180718 4.2877627574484 3.690401544136 4.9147883942958 8.7966319319211 2.9063429744996 4.8104271778118 2.7918136801356 3.0950450263797 4.1261909195032 3.6265116219879 3.1574073777715 3.1452127583449 3.3174190345187 3.3860534800529 4.2557085906566 3.0715655230653 7.9693287552604 4.0853449225285 2.9516840227618 3.3230686606341 3.8511193513575 3.7986258455139 5.9523133533893 5.5998068681368 7.6443201110496 6.6795708464642 5.3463336957401 6.1263093437188 4.5245688814679 5.34430905072 6.8717130713305 6.1947940212312 4.2627821193941 4.8702527427495 4.5378438057158 7.1171925205861 5.9115411768071 2.9057937591407 3.7205130251347 4.1840923407643 3.4404006618113 3.566160060594 3.266514426248 3.3607516641389 3.2116211506531 3.7412686552289 3.1141754411465 3.7482870318139 3.7568733265716 8.5505901864343 3.5948308356032 4.3026524580544 4.1652198320263 9.3127179174311 6.4785831226355 2.914028944544 2.9547304726009 2.9597811068641 3.5248574234211 3.959604976465 9.6199705877878 3.0760873763815 3.4012403594892 3.5000460523868 2.9180076215038 3.3171473851298 4.0010422001975 3.5780797026539 3.4212490951451 3.4364228381155 3.5288018393635 3.4673531562034 3.1408880125855 4.1116644313346 2.9111864984728 3.050162325806 3.5561901871961 3.2061070788724 2.9208778931133 3.0342664964755 2.8852103978338 2.9564430759949 2.9761794505727 3.0050283820767 2.9759326669586 3.6015107555811 3.302800889615 4.2585015679128 4.5756574546026 2.8633344625521 2.7725598575124 2.7543663325992 3.4258933031379 2.7711058579294 2.7758434983559 2.8451502135012 2.8005671093775 2.9679144692991 3.3059092780699 3.0749804733465 3.2487445074521 2.9128669625126 3.2950323192554 3.2093775054378 3.1859334695902 2.8919272959295 2.9238127183746 2.9210106933683 2.8313014517445 2.9820866608496 2.972179274753 2.8935328626208 2.912567358001 3.0567310106666 2.762038219325 3.0297841008024 2.8041114372156 2.7027075591832 2.7977547131531 3.5698189056732 2.8916818024926 2.8781484381685 2.9301864667406 2.948977756723 3.0637981793745 2.8752512051199 3.2829049226303 3.1168009005435 2.9394818596938 3.0681537090762 2.7995960527878 3.0105706121077 2.9930264755171 2.8447375809371 2.8233775670438 4.1924138734242 3.2814927546819 3.0230600568569 3.0005496139046 3.248598537135 2.8164589385298 4.3230954131089 2.9310878301215 3.0627184035038 2.9349367164445 2.9255698150152 3.0211245467969 3.1523343154173 3.5880233399496 3.5684778555993 3.0085613187344 3.0662279008419 3.221288939797 3.0985049612116 3.039256981262 3.2575843513231 4.2765221848121 3.3895983630849 3.3305884541682 2.8974920902553 3.8463147118162 3.079824770551 3.7641844155395 3.2773921639417 3.5453130120381 2.9568167677926 3.367637924817 3.8211415271517 3.0750722315471 3.6031507822701 3.8103407618128 3.4643465292269 3.3137145100621 3.3080296096459 3.7758819016055 3.5862105655904 4.1668777171963 3.4058650538957 3.2589937003561 3.2256968541654 3.0926162026109 3.439321461609 3.2870756015352 4.2375006442219 4.1417536120594 3.4373538733647 3.8283580234426 3.7757216535777 3.7515125822358 4.5587440861998 3.9379855750556 3.6134508688393 2.9213124585222 3.531786175062 3.7574116195854 3.2935844773872 3.2796261519457 3.2821562760648 3.9764105293179 3.449701973783 3.7222465654202 3.3174239502297 3.8443380802172 3.725298958238 4.1895802100295 4.0634843112072 4.5616106053232 4.084313509659 4.0344821977452 3.8693137081559 4.0397646699414 4.1543095999617 3.9706836057387 4.3000989076986 4.3724118514308 4.0318733311436 3.562214144219 4.5950975716088 3.8509951506054 3.3101997193689 3.7670441197943 4.0495078566065 4.5180946415635 4.0818676061051 4.3018393538208 4.6874265181581 4.5241391544628 4.692457379275 4.7178255587698 4.3997682424027 4.8113989525708 4.6967751335392 
SCALARS 200.00_0.22 double 1
LOOKUP_TABLE default