# vtk DataFile Version 3.0
d-2__ created by libgimli-v1.0.12
ASCII
DATASET UNSTRUCTURED_GRID
POINTS 1303 double
5.625	0	0
5.511811217919	-0.146388704457	0
5.676386535709	-0.13519637448	0
0.25	0	0
0.175228502521	-0.179050409113	0
0.326009290428	-0.144330725415	0
0.375	0	0
0.990207725992	-0.114957291708	0
0.841075314552	-0.137634199948	0
0.926498288371	-0.349340723189	0
-0.001071200562	-0.386156929004	0
-0.003317641763	-0.130454088023	0
-0.192720422374	-0.216308252768	0
1.25	0	0
1.175215748534	-0.200562384647	0
1.341115762259	-0.128605193971	0
1.375	0	0
2.25	0	0
2.168494514827	-0.19848886597	0
2.338304607341	-0.128945294536	0
2.375	0	0
1.911268305082	-0.334701951691	0
1.986191885908	-0.110806668109	0
1.838390258011	-0.128853462534	0
1.75	0	0
1.670105949089	-0.197137117999	0
2.986685504441	-0.10889534818	0
2.838723720416	-0.127406828384	0
2.912854264006	-0.329775839393	0
0.75	0	0
0.664572693147	-0.222613872306	0
3.25	0	0
3.168798596028	-0.193682232199	0
3.337828500197	-0.125181208794	0
2.875	0	0
2.75	0	0
4.25	0	0
4.161099470995	-0.193412132741	0
4.332718836325	-0.127723897736	0
3.83511440706	-0.12403687807	0
3.875	0	0
3.75	0	0
3.901908238995	-0.321557035295	0
3.983050435256	-0.106770030737	0
3.665527023987	-0.190866765849	0
5.25	0	0
5.164693411436	-0.21656556845	0
5.338419985376	-0.147288917438	0
4.834321952324	-0.135810575609	0
4.875	0	0
4.75	0	0
6.25	0	0
6.178399669611	-0.137425451145	0
6.356205370496	-0.193853696818	0
5.817814980918	-0.161175429964	0
5.875	0	0
5.75	0	0
6.611939839541	-0.314381537706	0
6.522886280605	-0.104721203126	0
6.75	0	0
6.669178832877	-0.119404962711	0
6.836073690852	-0.177498311423	0
5.39059629209	-0.37339102075	0
4.660917359886	-0.204007052252	0
4.902096977384	-0.356327271651	0
14.897042426984	-0.319128540459	0
14.98121339776	-0.105010975498	0
14.832720105416	-0.123004000492	0
2.669265824618	-0.196872625129	0
7.656019919505	-0.144451020927	0
7.75	0	0
7.625	0	0
6.625	0	0
8.75	0	0
8.672937461928	-0.164309120831	0
8.834289374889	-0.109279841483	0
8.206809119751	-0.294811800109	0
8.187056112549	-0.110869448227	0
8.024316200302	-0.129362764133	0
7.157390904024	-0.111206354394	0
7.25	0	0
7.125	0	0
8.25	0	0
8.125	0	0
9.75	0	0
9.651145885459	-0.185384966231	0
9.827054067621	-0.122428024454	0
9.381816956327	-0.305807769915	0
9.476753337472	-0.101567493772	0
9.327490061855	-0.116748040282	0
10.75	0	0
10.655660803951	-0.196164841752	0
10.830485405183	-0.127989131147	0
10.386748323888	-0.329675548046	0
10.478464938155	-0.108955040137	0
10.328560245085	-0.126395562242	0
9.25	0	0
9.375	0	0
10.25	0	0
10.15270392044	-0.192469144253	0
8.328856990144	-0.128933011689	0
8.375	0	0
9.153857570119	-0.175508527296	0
11.75	0	0
11.660624577581	-0.201812344528	0
11.833823570609	-0.131890823957	0
11.395399221028	-0.337817920558	0
11.481219500696	-0.111845889235	0
11.331881500183	-0.129806070652	0
12.75	0	0
12.669299873111	-0.199190799603	0
12.839534650452	-0.128328673855	0
12.40897914742	-0.340185307353	0
12.485654611126	-0.112072117633	0
12.336727606385	-0.131188239877	0
11.875	0	0
12.25	0	0
12.164627546098	-0.202605127067	0
13.75	0	0
13.669268468008	-0.186168180444	0
13.837322273199	-0.120178339978	0
13.416957459915	-0.319650485848	0
13.487510959619	-0.105281058988	0
13.34010202956	-0.123833443479	0
14.75	0	0
14.66080663422	-0.189613659871	0
14.399926333663	-0.319306441484	0
14.4823067449	-0.105599641009	0
14.334114343934	-0.12250571155	0
14.875	0	0
15.25	0	0
15.158227025815	-0.185762723401	0
15.330441202311	-0.11956675178	0
13.875	0	0
14.25	0	0
14.163960939829	-0.186365139356	0
12.875	0	0
13.25	0	0
13.171786689458	-0.193064330135	0
10.875	0	0
11.25	0	0
11.158129238503	-0.198418008741	0
7.31587636932	-0.171642077952	0
15.3902841013	-0.308450173235	0
15.478958243586	-0.102394874489	0
-0.125	0	0
0.125	0	0
0	0	0
-1	0	0
-0.706889652808	-0.331752981492	0
-0.5	0	0
1.125	0	0
1	0	0
1.625	0	0
2.125	0	0
2	0	0
1.5	0	0
1.488007132967	-0.109900770852	0
0.5	0	0
0.474245721096	-0.130043839003	0
0.625	0	0
3.125	0	0
3	0	0
3.625	0	0
4.125	0	0
4	0	0
3.5	0	0
3.485533411273	-0.107014956798	0
5.67736414417	-0.368119689468	0
5.125	0	0
5	0	0
4.98353533542	-0.118243061674	0
6.125	0	0
6	0	0
6.009467825362	-0.139471566496	0
6.5	0	0
4.625	0	0
5.5	0	0
4.5	0	0
4.481603306259	-0.111052305129	0
2.5	0	0
2.486482293556	-0.110456056597	0
2.625	0	0
7.828740664136	-0.157959666613	0
7.5	0	0
7.497789303332	-0.098817221798	0
8.625	0	0
8.5	0	0
8.493725508365	-0.094448160765	0
8	0	0
10.625	0	0
9.625	0	0
9.5	0	0
9.125	0	0
10.5	0	0
10	0	0
9.976983002093	-0.106037154081	0
10.125	0	0
9	0	0
8.980258705317	-0.095443922293	0
12.625	0	0
11.625	0	0
11.5	0	0
13.625	0	0
12.5	0	0
12	0	0
11.983083448534	-0.113269018621	0
12.125	0	0
15.125	0	0
13.5	0	0
13.125	0	0
14.625	0	0
14.5	0	0
15	0	0
11.125	0	0
14	0	0
13.984735949845	-0.103165953766	0
14.125	0	0
13	0	0
12.987740386932	-0.109238757727	0
11	0	0
10.980033547654	-0.110118532971	0
7	0	0
7.012790729926	-0.096165366155	0
15.625	0	0
15.653391866104	-0.184257106926	0
15.75	0	0
16.25	0	0
16.151956269841	-0.190746813766	0
16.328162175541	-0.125534698515	0
15.827345422636	-0.12109528269	0
15.881623705918	-0.315197408181	0
15.9768075603	-0.104841845177	0
17.25	0	0
17.155473725888	-0.187015736188	0
17.328334720487	-0.12053442359	0
17.375	0	0
16.97978281674	-0.105790715925	0
16.830585534618	-0.124270763258	0
16.892220832712	-0.321708894118	0
16.75	0	0
16.655725821363	-0.19281499559	0
18.25	0	0
18.144056513649	-0.199584109463	0
18.322695877645	-0.133173012767	0
18.375	0	0
19.25	0	0
19.156955168382	-0.212194778097	0
19.332395147696	-0.137501625504	0
19.375	0	0
18.978107771567	-0.118463258117	0
18.827251646435	-0.137822523984	0
18.884674261801	-0.359498065923	0
18.75	0	0
18.648603260315	-0.210400354993	0
17.973004229039	-0.108213471414	0
17.823362138939	-0.124125311933	0
17.87020700187	-0.324156104502	0
17.75	0	0
17.64837652944	-0.187413016584	0
20.25	0	0
20.167288289523	-0.206556633625	0
20.33799343326	-0.133667464393	0
20.375	0	0
21.25	0	0
21.172020853715	-0.201327641466	0
21.340729826518	-0.130206344264	0
20.875	0	0
20.75	0	0
20.839555732676	-0.132066213667	0
20.987710400762	-0.112937783384	0
20.915843633601	-0.342386775443	0
20.669904108595	-0.203936882105	0
22.25	0	0
22.168893714495	-0.194483818359	0
22.337089427477	-0.126591453251	0
21.875	0	0
21.75	0	0
21.840184239699	-0.127666317168	0
23.25	0	0
23.162361450448	-0.215073727418	0
23.335945395372	-0.148199257458	0
22.875	0	0
22.75	0	0
22.83504078106	-0.133126573368	0
27.412614995451	-0.337768305098	0
27.406417478875	-0.760610856776	0
27.663031754041	-0.476449210851	0
23.674319496044	-0.139602731619	0
23.75	0	0
23.625	0	0
22.902876337082	-0.348446434986	0
22.664415839639	-0.19979598046	0
21.987454968006	-0.109075483352	0
21.916658702332	-0.330379709848	0
21.67241042914	-0.19774510361	0
19.984830323221	-0.115851903278	0
19.835879034474	-0.135573032779	0
19.906686139011	-0.351521653308	0
19.75	0	0
19.663378765328	-0.209646647928	0
24.75	0	0
24.672305039303	-0.121865624882	0
24.84054616259	-0.178479133746	0
24.25	0	0
24.125	0	0
24.179559510218	-0.145425217914	0
25.656694723316	-0.141492417978	0
25.75	0	0
25.625	0	0
25.25	0	0
25.125	0	0
25.159224348757	-0.109007087058	0
22.647257188685	-0.476376729768	0
22.872248033711	-0.780455516934	0
25.317652966423	-0.167196322239	0
31.908525182248	-0.237434634112	0
32.248547795208	-0.367887731521	0
32.025	0	0
26.398062594932	-0.327144710524	0
26.335089901602	-0.124890632532	0
26.169730315141	-0.188549564961	0
26.75	0	0
26.662500836065	-0.197477656933	0
26.835401004001	-0.129534360312	0
26.375	0	0
26.25	0	0
27.486869476066	-0.111474770432	0
27.338367230812	-0.130187170762	0
23.816158307302	-0.168335740772	0
23.875	0	0
24.625	0	0
27.75	0	0
27.67023663024	-0.198727549038	0
27.839431305592	-0.128541986375	0
27.375	0	0
27.25	0	0
28.75	0	0
28.666013303123	-0.192953151514	0
28.835335299513	-0.125393524551	0
28.875	0	0
28.41074998604	-0.32692743598	0
28.485854239984	-0.108071323096	0
28.338261561589	-0.126341817439	0
28.25	0	0
28.169650699531	-0.195402875109	0
29.75	0	0
29.656991685033	-0.201213204108	0
29.830700495316	-0.13323291855	0
29.875	0	0
30.75	0	0
30.665605116896	-0.213760177502	0
30.837855425721	-0.139272404211	0
30.875	0	0
30.987248292653	-0.119871959545	0
30.911614165903	-0.362389547989	0
31.25	0	0
31.174363802618	-0.217041176186	0
31.346460135447	-0.143418487957	0
30.400599561582	-0.360265197586	0
30.483280501431	-0.118794220148	0
30.3336351656	-0.137924489201	0
30.25	0	0
30.159375273254	-0.21004086356	0
29.392934647931	-0.331414044449	0
29.48031118177	-0.110263057575	0
29.331777210358	-0.127344913482	0
29.25	0	0
29.160548153072	-0.194064979946	0
27.167334579456	-0.200440763045	0
24.359650796728	-0.20304719459	0
-0.25	0	0
-0.404335947278	-0.221464959739	0
16.125	0	0
16	0	0
17.125	0	0
17	0	0
16.5	0	0
16.478267427857	-0.108008273171	0
16.625	0	0
18.125	0	0
18	0	0
19.125	0	0
19	0	0
18.5	0	0
18.473681471998	-0.115768873419	0
18.625	0	0
17.5	0	0
17.47687846862	-0.103462148239	0
17.625	0	0
20.125	0	0
20	0	0
21.125	0	0
21	0	0
20.5	0	0
20.486446843971	-0.114298370976	0
20.625	0	0
22.125	0	0
22	0	0
23.125	0	0
23	0	0
22.983281399654	-0.116385827149	0
23.5	0	0
23.509214189908	-0.149359691049	0
22.625	0	0
22.5	0	0
22.48467632496	-0.1093719097	0
21.5	0	0
21.488472844532	-0.111208801785	0
21.625	0	0
19.5	0	0
19.482219828947	-0.117572233456	0
19.625	0	0
24.5	0	0
24.525433875838	-0.108080714825	0
25.824234283709	-0.149177038136	0
25.5	0	0
25.498573523516	-0.096586408813	0
25	0	0
25.014769107289	-0.095147895568	0
21.919931345447	-0.741308582321	0
22.160361550711	-0.463896476278	0
26.625	0	0
26.5	0	0
26.482631880244	-0.108512805864	0
27.625	0	0
27.5	0	0
27	0	0
26.984612185119	-0.111680714924	0
27.125	0	0
26.125	0	0
26	0	0
25.990349817319	-0.10847866492	0
28.125	0	0
28.625	0	0
28.5	0	0
30.625	0	0
29.625	0	0
29.5	0	0
29	0	0
28.983089608831	-0.107750428826	0
29.125	0	0
30.125	0	0
30.5	0	0
31.63125	0	0
31.5	0	0
31.494696987447	-0.123712578064	0
23.671261205816	-0.380102168636	0
31	0	0
31.125	0	0
30	0	0
29.980228243528	-0.115525062547	0
28	0	0
[...]
CELL_DATA 2263
SCALARS 1000.00_1.26 double 1
LOOKUP_TABLE default
11.554627291202 8.3712841617921 8.4456135270551 9.0231020929206 8.5407239225352 8.904189589803 9.0029700313717 10.747983545372 10.767754391676 10.919425360069 11.084550931218 10.525019230487 9.0460329065221 9.691672609726 10.980563474399 11.320970733142 10.152329151361 10.185971713278 10.086151411071 10.496796363333 10.967499927179 10.374548724765 11.643908050732 10.108383449326 9.8656763992468 10.50090621747 11.657450088597 10.483741612324 10.88256833484 12.09866857553 10.985815692137 11.885529167912 9.8113618087077 11.825712101329 11.218101399616 11.578027870255 11.195827829517 10.97356221596 10.443016350301 12.384988500359 12.088825587129 10.125357520334 12.367477117048 11.345576842761 10.172851168164 11.94136404053 11.410240232688 10.748067235746 10.416147057977 11.940576668291 10.333391580343 11.066229005641 11.913110570696 12.612416668875 11.797378940127 12.6860067918 11.331898236917 11.021667131977 11.871250774468 10.888538384091 12.112840044013 12.500679287201 11.231307195096 11.627397575554 11.557036734603 8.794648058332 8.4824084142729 8.0460236105952 8.8611076635028 9.0968713452452 11.011616744813 11.236672004651 10.3603033782 10.870692160735 9.0224554576964 8.2811941765082 9.8525054283732 10.463615884224 10.124698216698 10.983656019292 10.109153995088 11.347684368181 11.110871741369 10.819720545309 11.585862768969 10.89932422241 10.060579728461 10.95852271265 11.509216269297 11.073122847906 11.232790068257 10.52145970706 11.244908687084 9.0635604622766 11.84091325036 11.978540971713 11.235106830572 11.91336944924 11.504386410335 11.903517100909 12.405372889207 10.887805493921 10.308685231905 12.507421569892 11.941410896514 12.372158747289 11.069273185096 11.016513434825 10.669975628699 12.063727166115 11.183426462354 10.680912201853 11.1025687138 10.43486533095 11.36725800137 11.815846383286 12.093670786127 12.497539511509 11.907421306026 11.318004678564 11.852375055577 11.978917430106 11.805244285983 12.710424422177 11.939216817768 12.141537639175 11.207352611765 11.163434223645 12.083500429234 11.94970277843 11.812337823652 10.433996769764 10.453684812393 12.106612250553 12.877293007364 10.260785390934 10.230311128835 10.931048079859 11.012225351001 10.225391875974 10.063239709944 10.693139835898 10.728182969929 12.86491981551 13.068818696177 10.334464032606 11.030362913441 11.006373358215 10.981663972128 11.804860209393 10.686190605264 11.826411510199 10.58728289682 8.3279761169707 10.201449700162 10.362698894623 10.566670084876 10.860608176367 10.703130903731 11.266066974596 11.065577309641 10.54513602559 9.7062828968372 11.890739853735 11.310103808304 8.5673139420817 11.206868025975 7.4730489169597 10.611041525758 9.7444649320471 11.265138946914 9.9123159008522 10.153763686276 10.581425819033 11.225742651741 9.9384884009103 9.9957821676221 10.818118276185 10.908498802838 11.449497840007 12.023484607404 9.7599101779496 9.7314965288564 9.0577973641789 9.0573533570592 8.9623579779946 8.4930159168599 8.689268680528 8.4204785388839 10.784542101868 11.254249328907 9.9640801813999 9.727099661776 8.5724409225699 12.147024114084 12.067837205174 11.434045026126 12.522994453286 11.981727184735 12.897785027636 10.783772236297 10.970273661317 10.83954134857 10.341204884892 10.415194879239 10.862387902681 10.492256968413 10.775051886083 12.340212537275 10.420966728028 10.982014009515 11.911563044445 12.88552780882 12.033743531955 11.807708631043 10.137856405701 11.616472365239 10.844661245849 10.707362901579 11.265445407113 11.984462486192 11.035293230482 11.056332524093 11.220936142891 10.114160898956 11.076341293492 10.631904876535 11.704304753289 11.823616003828 11.332996550594 8.8801331852342 9.7916311592874 10.376757237431 9.961249143144 10.142775008083 10.149964628222 11.394529615326 11.573328791584 11.996897953163 11.361555968265 9.1301550229682 10.60584840629 11.341071349689 9.9457021994062 8.4855372631048 9.0931179541723 10.026437162317 8.3748004886534 10.046412712957 9.0993784933278 11.345998714918 9.1084809564192 8.7055178712288 11.264447273372 10.833387950904 10.040538497355 10.845832434701 8.2775606068031 12.014995626493 8.3583826937443 10.32847172111 8.824936270418 8.9727768214015 9.7097873159176 11.00902838083 11.032828195479 10.699088211791 11.369642411867 9.0710068108551 9.1830458523644 10.120615365524 9.8895782511924 11.123008842857 11.451009488007 10.118453437492 10.560317067684 10.620280722592 11.122188570962 9.593179413572 10.340907893926 8.629927478544 10.719723081727 10.406753718641 11.36910842868 11.001230541102 11.027602971127 11.180649290946 10.793096964801 11.910706344117 11.906273616602 11.607344267286 11.39083173874 11.759539423197 11.015065412574 11.415573963225 12.358395751313 12.418411575309 12.128315700517 12.649180344225 10.666792828713 10.500764725232 12.108249856497 11.620430107327 10.668253680466 11.445382631931 10.702999781424 10.610534913305 11.487477548874 11.402989445776 12.552398414556 12.420322877562 11.56311049908 11.735239039333 11.953339738199 12.163768397695 11.937050765813 12.196415974833 11.587760044483 11.654769094274 11.505141116833 12.019540253534 8.4474191293498 12.081253015636 12.026430006743 12.072023969714 12.239963524162 10.853341990346 10.767239482971 12.602467980734 12.479833807079 10.610523556892 10.347467145853 10.907174603977 11.213016012386 10.231972459682 10.511413772269 10.852037712585 10.870680848142 12.535586145107 12.740828526913 10.728570487338 10.721095102731 11.377651795257 11.205827020968 11.930618523636 11.573416908375 11.752074373539 11.535113676799 10.155960498104 10.25706485371 10.919728766534 11.06568877721 11.001830776378 11.184721659022 11.112487046866 11.780112497476 11.839008718329 11.028017461764 11.243284754004 11.618238366194 10.439158686808 11.481876541386 9.9974916867836 10.081974509157 11.377829159282 10.943139035918 10.036698813558 10.603396786394 10.983258156756 11.223845350446 11.571557874685 11.971267375619 10.211076445991 9.5602288414219 9.1524527608056 9.1193792789587 8.9275714548119 8.2846959793093 8.7871924631087 8.7860176875241 11.310146165955 11.08371936597 10.087408548152 10.138190580657 9.7568511550936 10.359198440167 7.8627625203619 8.7480997080955 8.1001916663924 8.7855814372597 8.2506157303656 8.4917531704536 9.0845490927678 9.7525444030849 11.243417452275 9.6569478629817 8.9331330595092 9.419662692593 8.7917578952366 8.6716891356146 9.2513820717288 11.451079663194 9.5813141092567 10.594357559595 10.129479996038 9.7135690383195 10.596629195894 10.428381000147 10.289020094989 8.6358387940183 10.429628295371 11.962632725429 10.653452040545 6.1002028754241 10.375755780088 10.953972913966 10.724675138847 10.691545624128 11.566370523509 11.847577264536 11.581314200625 11.002169781253 10.580263819433 11.096447254755 10.176871356526 10.938660918886 12.530005507381 10.560116443033 10.673469014563 11.112548209544 11.150814240598 11.497232307022 11.234690450114 9.9036783024571 10.352264960736 10.844008670179 11.512503410287 11.32336479123 12.232372171286 11.003493361688 11.896903326015 11.372201051169 11.871619394313 11.966400083542 11.608189785037 11.292082092658 10.440314012752 11.093011767654 11.913507367197 12.082634993518 9.9902624234267 11.086164880657 10.942947451769 11.999467160059 11.723088139141 11.812582072703 13.040930803086 9.7785602342137 11.7074139223 11.790847106221 10.751718213808 9.6124887268017 10.102090458152 10.446357703026 10.534501980357 10.174739765936 11.311506703842 10.663300447979 11.176470039867 10.311311707063 9.9838519540777 11.795708228078 11.509935687342 12.161466151272 10.064113145605 11.922896342107 10.899272072172 10.177681143886 10.649585896417 11.083855602965 11.090369085947 11.191951106302 10.799237849049 10.595763900832 10.374357887041 10.83162547764 10.825831180682 11.711451106146 9.6104838865505 9.8017328290336 9.7368423783277 8.7346237067644 9.8858507379009 10.01230642504 10.393044004869 11.079418442195 9.1866298754556 10.063798567964 12.22235830817 9.306125382187 9.8342424314571 10.220799586751 11.302457210333 8.3434658184051 8.4065167561419 8.3558466981625 8.8400555796576 7.6884490964605 10.269663235496 9.4403235760989 10.962647526323 10.891266937312 10.613036502533 9.6459635695527 10.930096313719 9.7340164601267 8.0981335537017 8.2391517832431 8.2482494059117 7.4970320230614 8.5102333407282 8.6276200672916 9.0233190154252 9.2689849067649 10.47998483895 10.840442226101 10.657210934988 11.270704988086 8.8903949052638 9.1333631744551 9.5668715162934 9.7312687277912 10.758154035636 11.401923859176 9.9015072652981 10.270089816617 8.5296609709664 10.754542904396 9.8923239268749 10.415850981794 7.7814993112897 10.011212006735 10.188178294948 11.478556322387 9.6736985468419 10.973039037364 10.47759845897 10.880780950709 11.423047448079 11.936671075219 11.378059094548 11.770684512245 10.410258780445 11.529472245035 10.854725269564 11.128544611131 11.941112568187 12.471007160452 11.817538824659 12.524433608063 10.287624945839 10.282218839031 11.326655213314 11.779398788971 10.718328103183 11.104641317966 10.240446379015 10.459736712465 11.109721274209 11.165106749206 12.017113693015 12.55093806293 11.338727428956 11.519679859908 11.576316905806 11.945232860605 11.73240254205 12.229980760764 11.202224369299 11.393643780461 10.025870674759 11.814965231351 11.725785545126 11.953938434361 11.590181899002 12.025086236095 10.521493707523 10.609357970338 12.09020537377 12.806384531255 10.086367488183 10.271485696772 10.592418736176 11.069208624161 9.9676785402866 10.25678736649 10.593168716729 10.808186612126 12.002639289069 12.910917170112 10.380402517274 10.492016572344 10.837822610945 11.141210498064 11.117057487756 11.646924489935 9.6278654876791 11.710303876196 8.2437623946788 10.19998577878 9.7260781560953 10.727645120802 10.56256760056 10.837574757217 10.872719737152 11.371144755765 7.8059936821341 10.618636762248 10.363193025981 11.569008319156 9.2599700456907 11.204186265228 10.078414076254 9.9202981958143 8.832943725517 11.102422799138 9.8669414066394 10.199824824751 10.670117757036 11.026066567075 11.282790590871 12.081278654929 9.4720115109215 9.6759409294955 8.864302053778 9.0783185979802 8.3296377130454 8.3074810723598 8.5242195002902 8.5758485904861 10.770470699354 11.199519124646 9.7554305474055 10.045297164134 9.2175705884241 9.855793286786 8.2840045621281 9.8915918500808 8.0706632396479 10.665682917925 9.7086137619808 9.7661746718521 8.5941970745808 9.3564757463112 7.7738939731965 8.3008629278275 9.64294322894 10.670271125364 9.6851689572102 9.0201265285267 9.1187922523922 9.1490970296118 10.975118123746 10.738850502818 9.5683661085079 11.173652365544 9.6077511440112 11.875321204165 8.6061236379348 11.060473681308 11.217680260432 11.502020731302 8.6687394999429 9.6978973899962 9.3718750959394 11.494620516628 11.872178117301 11.349256531956 9.6242983318883 10.904759289222 10.115684834708 11.68420894892 10.98157103319 10.800076691246 10.212024645872 10.551635482746 9.4284600299971 8.5820814156762 9.2637480522589 11.336447294771 9.9997628260366 11.483562741976 8.9546015717769 9.9044053429715 9.9332856214528 11.663589008818 10.028816787852 11.15153694343 10.905986713733 10.909582652878 9.9005750491869 10.825651843179 9.2734541744414 10.648741028254 9.84224125691 10.804344989866 9.6900388885021 10.242640572774 10.197230653478 10.469220354294 10.198273510335 10.711366370553 10.283376414471 10.067527861758 9.8392395792006 10.885376408806 8.6626999234051 10.75343376386 9.6845878894745 11.491361052303 8.4690776204546 9.3665178140088 9.5192391751714 10.174941567484 9.1984284499154 10.686108296213 9.8804815306953 10.773040489909 9.0381700022959 10.311550108808 11.10043798673 7.9833023899433 10.198324334689 5.5983777368243 8.6128391847021 8.0741662233994 7.5225000316019 9.639751957589 8.0341598954147 9.8781401667933 8.6984841723802 9.8982203784445 7.5161502815042 10.725628455492 10.787238835167 9.8399962250606 10.321017299645 9.9166880095036 10.963701449971 10.585790767063 10.401148585935 9.6017094288087 9.1277066399518 10.878912706382 10.021714699665 9.0424580890544 9.2190619010137 9.8444339042124 8.0996506647408 8.8460548488197 7.6947174898119 8.1605403450456 7.2025138384339 7.3923252073051 7.6516031448086 8.4244201924935 9.1172154142239 10.045506841828 9.7883994724736 11.049407594279 8.4236797019436 8.7507383624474 7.5831627755095 7.6982299732292 9.8907921078485 8.4611284014987 7.2759962531516 7.7194868362022 8.2366492704247 8.3405335645808 7.7327329847577 8.1200540651389 6.2364335439796 7.643177678373 7.2662160146971 9.561551797737 7.6533397620441 8.5402943890363 8.661312184442 8.3477423916631 7.8258138464844 7.7313682824211 7.4007950372711 9.1914667859282 11.205024443265 8.300824659813 8.3191893435987 9.4729976986385 9.0900449453461 10.300624297151 9.0625932367893 8.5617556653602 11.284053999445 5.3678903293808 9.7509629060502 8.4155679485718 9.6396442156229 8.5403045898135 8.4350578576932 7.8330580198362 8.661695235851 9.9068012197971 9.6039145568404 9.6319283682749 7.798038318372 10.67823645613 9.5728684195916 10.322439438619 9.7243090129817 11.01688272384 9.9088841102875 10.335132669553 10.350173959899 9.7722631590655 9.0905183376863 10.466418874327 9.0060336995712 11.056781074525 11.137811702337 10.830510343765 10.068299245923 10.749528253098 9.9505671286483 10.779462449199 9.8124210627268 8.3304586154369 9.1012563656475 10.679391195778 9.6499768339144 8.8390373638226 8.2018549116685 5.3844978089464 8.3288869197963 7.2691806268148 10.612615221184 9.338099797873 10.841054610757 10.28585334106 9.7710770419287 10.945857349216 9.0529908381372 10.09602563675 9.810165168701 9.3384170756995 9.081490639724 9.620861196842 8.5617417449156 10.10277492758 9.1994871613784 8.8309663923972 7.6792487277019 10.171191154102 9.6865691130076 10.560642950266 8.9834745498498 9.864844619548 9.2013957921136 10.06428931389 9.4375754564895 8.858776624031 10.873371742883 9.8391322022087 7.9358770293328 6.0902853314737 8.5648139255718 9.9502120255107 8.9486413162434 7.7824711253871 8.1242587712813 8.7776919949533 11.299584524422 10.021965955053 6.0912037390802 8.7513816274146 9.0113472948098 6.0700919493371 9.1112908203605 10.032921870821 5.9511305608663 9.1389954160093 9.0648670801321 8.3550408294596 7.3300150756 8.2829074070855 7.6716816882076 9.0593360729301 7.8858968654097 9.9823977594047 8.8586371948876 8.3114467264592 7.1538140078884 9.8278135123191 10.617131366667 11.331819569719 8.706714436599 8.0421752991987 7.0943553259404 9.8015865509666 5.7478479473484 8.2875562167354 10.362187931902 7.4825333559534 6.1575982896216 7.1687414110067 4.8277052836916 5.897117742002 9.2816911777705 7.4092300627993 9.7117771077431 7.6908380929118 6.5737782488969 6.8718239168287 10.55702215052 8.8092441892002 9.3671636553858 10.110999778745 8.5448815661424 7.6136980763911 10.811348649875 7.7880662790002 5.646734901249 5.9066822999837 6.185601043142 8.3504297529031 6.4414091157966 9.3626424117007 9.4630824110976 9.7218982744996 9.364438197706 10.039225661427 8.7909503140434 6.0271987712969 8.6457217753321 9.0959727443774 5.5473348161256 9.946989706018 9.4651390021978 7.2451132294941 9.8890961069182 6.567650499345 9.111548113752 6.0262349956086 9.4754290132077 6.6508697687918 8.7684560887964 5.7911192204299 8.5341249304345 6.0389843751106 9.8219589265591 5.0732762190989 8.8415366090691 8.7054955470188 5.6916535270009 3.4208625839286 7.0357251991694 8.3842559710949 7.3940652959882 6.7662129842667 8.8524676171636 7.4958993770857 9.6753136652938 7.1525832811175 6.3482196306531 9.0844271633909 7.1134122238714 8.5588171389116 6.1717552487974 7.0544054645726 8.0730680379557 6.4513774179386 9.4636955385299 6.8835547946182 8.615047078471 9.136965719279 7.5556763265886 6.4302616446968 8.0049731295016 5.4714762689518 8.8244491738215 9.2763269974169 8.2364768188825 9.9334611901305 8.8814716234568 4.639021219794 9.2875914016755 6.0381442484512 8.1706240032807 5.9636297442903 8.7820328140477 5.8916709709546 7.9593430107607 8.7376038779912 6.0154987109804 8.2574821124349 8.9408300191213 8.5104052705246 8.286573617449 7.7001967667117 6.7136157732393 7.14255926379 5.8514352054966 6.5793987501335 8.6175045798198 6.4312414855242 7.6620389872936 4.3469829485454 9.1103606335436 5.8624245529427 8.2424450242084 9.8347008094339 10.110582041541 8.3173421686759 10.779761298037 7.6716565804975 8.6255390379631 7.9483647665744 6.7918187570885 5.4501536990826 7.9930807458891 5.8501510722247 5.2507205909283 6.3554874513113 5.6472120490329 7.7302861482251 5.9876117861836 5.8174588478813 3.9425428293803 7.1124162519991 6.8045723554331 7.5785658291484 6.9869714093094 6.4942820134399 4.7921698164794 5.901107244636 7.2751365181439 7.0472832439049 7.1479120999025 5.641784225327 7.5045004461921 6.8729531595619 6.7713345080754 8.5707664724527 6.0944644138045 7.0810943533897 6.3375547318655 6.9061030207498 7.1313225350621 6.0621573099325 8.5870821505953 9.5005819371806 8.7089225813801 7.5242384219584 5.7489569692605 7.3653096697526 7.1750324094656 9.0104585683121 6.4073688803082 5.5809856649187 8.6354239993386 6.4401998009109 5.2851133323389 6.3338028710084 7.3101975955445 5.4631330098613 5.6871810108252 6.359593844974 5.997168305746 4.5683280254456 5.6393971190159 5.0782321806576 5.394384567367 4.5406730383944 4.4444062567022 6.2713654840492 5.1087497732337 4.0874029881665 3.9850966396959 3.2929524445972 3.9263678852924 4.2659507915583 7.1680412572017 7.2727822562856 6.6260061934575 6.8127000752415 10.942518254074 5.4619264285963 6.5730721984644 6.0545764812893 8.4204749372955 9.325656349748 5.5996402491061 6.0643638131282 6.935248489395 8.6675394505899 6.4381831076353 6.2472808456511 8.4002451209626 6.7009394089316 5.1016275359348 5.6436819120666 5.9339958398679 5.420825478809 4.4740153822702 5.494318004615 4.7005839819407 5.5565995006884 6.1886129387933 6.5903742393511 5.0965797942326 5.7131496618901 6.8538350738802 6.1829608105074 5.1849142389142 5.6025473889303 5.133392893941 6.7217300403602 5.4803008025716 3.687759473095 6.208910929811 5.2497151030847 4.4077684423553 4.9625482242222 5.7974598899492 4.4449241879111 4.3441827982933 6.2999935790446 6.8439033444091 6.8424118472218 4.3527607968217 3.4099579901511 4.9973409885691 6.1781554041817 6.1695206954774 6.1816695014201 6.6026763851984 5.3601064977728 5.6592959163598 4.8483405639766 4.5151810110615 3.9825907821923 4.4802468039352 5.5357172717428 3.9552213055395 3.7953474105505 4.9619563610772 4.1016100388721 4.5079386838607 4.9156506654253 4.6482061489945 5.5863301506057 5.202898908612 6.126077118156 6.0357011421781 4.8448651133258 5.2963841794009 5.9030604140963 4.7895564627929 3.4282018166897 6.4175133828924 6.4172381922962 7.3028990715832 4.3778963979994 6.2267858651858 6.1658917195338 6.1374288413297 5.676999791929 4.8116974796149 4.2859952303559 5.7177475331507 4.2843046532086 6.9099629072734 7.5837621131078 4.7766129784929 5.51974240104 4.3390594862737 5.9924583935111 6.8835555898311 6.5579619603488 4.4641428510101 5.0139119844154 3.2027229171102 4.7832864421161 4.0755318743474 6.655480082938 5.0998216273337 5.6380633322955 4.6404129575984 4.0264480774453 5.4139287331378 4.5750271444868 5.5617147717986 3.8245985418483 4.0041535817758 6.1645577815758 4.8986571008961 4.27388714885 5.6229175223902 5.0482662503225 6.0884438227629 3.983081685813 5.1303941165573 4.5844394639511 4.0488990138374 5.4608601373651 5.0724946852808 6.5833515096461 5.2793024587416 5.9746881672392 5.8822039712185 6.6977634606828 7.1205307601621 7.3457585776175 5.1110024755387 6.3067821422173 5.7828076991923 4.5879818927425 3.9786238076001 4.692836794285 4.3314184798365 4.8866211146031 4.8477950156438 3.8361818343237 5.612488307737 6.2144921411005 3.5427655356884 4.1849566333086 5.6208787337338 4.0166373903718 5.54028353655 4.3365910027394 4.350563106454 3.3973228154009 4.8128357802774 3.4189355731988 3.5167897481779 4.555672846209 4.0111929748438 4.6918654489937 5.6422508618706 4.7319275757895 3.6017132030057 3.9277386944131 4.3791966558469 5.2639197332879 6.19