# vtk DataFile Version 3.0
d-2__ created by libgimli-v1.0.12
ASCII
DATASET UNSTRUCTURED_GRID
POINTS 1303 double
5.625	0	0
5.511811217919	-0.146388704457	0
5.676386535709	-0.13519637448	0
0.25	0	0
0.175228502521	-0.179050409113	0
0.326009290428	-0.144330725415	0
0.375	0	0
0.990207725992	-0.114957291708	0
0.841075314552	-0.137634199948	0
0.926498288371	-0.349340723189	0
-0.001071200562	-0.386156929004	0
-0.003317641763	-0.130454088023	0
-0.192720422374	-0.216308252768	0
1.25	0	0
1.175215748534	-0.200562384647	0
1.341115762259	-0.128605193971	0
1.375	0	0
2.25	0	0
2.168494514827	-0.19848886597	0
2.338304607341	-0.128945294536	0
2.375	0	0
1.911268305082	-0.334701951691	0
1.986191885908	-0.110806668109	0
1.838390258011	-0.128853462534	0
1.75	0	0
1.670105949089	-0.197137117999	0
2.986685504441	-0.10889534818	0
2.838723720416	-0.127406828384	0
2.912854264006	-0.329775839393	0
0.75	0	0
0.664572693147	-0.222613872306	0
3.25	0	0
3.168798596028	-0.193682232199	0
3.337828500197	-0.125181208794	0
2.875	0	0
2.75	0	0
4.25	0	0
4.161099470995	-0.193412132741	0
4.332718836325	-0.127723897736	0
3.83511440706	-0.12403687807	0
3.875	0	0
3.75	0	0
3.901908238995	-0.321557035295	0
3.983050435256	-0.106770030737	0
3.665527023987	-0.190866765849	0
5.25	0	0
5.164693411436	-0.21656556845	0
5.338419985376	-0.147288917438	0
4.834321952324	-0.135810575609	0
4.875	0	0
4.75	0	0
6.25	0	0
6.178399669611	-0.137425451145	0
6.356205370496	-0.193853696818	0
5.817814980918	-0.161175429964	0
5.875	0	0
5.75	0	0
6.611939839541	-0.314381537706	0
6.522886280605	-0.104721203126	0
6.75	0	0
6.669178832877	-0.119404962711	0
6.836073690852	-0.177498311423	0
5.39059629209	-0.37339102075	0
4.660917359886	-0.204007052252	0
4.902096977384	-0.356327271651	0
14.897042426984	-0.319128540459	0
14.98121339776	-0.105010975498	0
14.832720105416	-0.123004000492	0
2.669265824618	-0.196872625129	0
7.656019919505	-0.144451020927	0
7.75	0	0
7.625	0	0
6.625	0	0
8.75	0	0
8.672937461928	-0.164309120831	0
8.834289374889	-0.109279841483	0
8.206809119751	-0.294811800109	0
8.187056112549	-0.110869448227	0
8.024316200302	-0.129362764133	0
7.157390904024	-0.111206354394	0
7.25	0	0
7.125	0	0
8.25	0	0
8.125	0	0
9.75	0	0
9.651145885459	-0.185384966231	0
9.827054067621	-0.122428024454	0
9.381816956327	-0.305807769915	0
9.476753337472	-0.101567493772	0
9.327490061855	-0.116748040282	0
10.75	0	0
10.655660803951	-0.196164841752	0
10.830485405183	-0.127989131147	0
10.386748323888	-0.329675548046	0
10.478464938155	-0.108955040137	0
10.328560245085	-0.126395562242	0
9.25	0	0
9.375	0	0
10.25	0	0
10.15270392044	-0.192469144253	0
8.328856990144	-0.128933011689	0
8.375	0	0
9.153857570119	-0.175508527296	0
11.75	0	0
11.660624577581	-0.201812344528	0
11.833823570609	-0.131890823957	0
11.395399221028	-0.337817920558	0
11.481219500696	-0.111845889235	0
11.331881500183	-0.129806070652	0
12.75	0	0
12.669299873111	-0.199190799603	0
12.839534650452	-0.128328673855	0
12.40897914742	-0.340185307353	0
12.485654611126	-0.112072117633	0
12.336727606385	-0.131188239877	0
11.875	0	0
12.25	0	0
12.164627546098	-0.202605127067	0
13.75	0	0
13.669268468008	-0.186168180444	0
13.837322273199	-0.120178339978	0
13.416957459915	-0.319650485848	0
13.487510959619	-0.105281058988	0
13.34010202956	-0.123833443479	0
14.75	0	0
14.66080663422	-0.189613659871	0
14.399926333663	-0.319306441484	0
14.4823067449	-0.105599641009	0
14.334114343934	-0.12250571155	0
14.875	0	0
15.25	0	0
15.158227025815	-0.185762723401	0
15.330441202311	-0.11956675178	0
13.875	0	0
14.25	0	0
14.163960939829	-0.186365139356	0
12.875	0	0
13.25	0	0
13.171786689458	-0.193064330135	0
10.875	0	0
11.25	0	0
11.158129238503	-0.198418008741	0
7.31587636932	-0.171642077952	0
15.3902841013	-0.308450173235	0
15.478958243586	-0.102394874489	0
-0.125	0	0
0.125	0	0
0	0	0
-1	0	0
-0.706889652808	-0.331752981492	0
-0.5	0	0
1.125	0	0
1	0	0
1.625	0	0
2.125	0	0
2	0	0
1.5	0	0
1.488007132967	-0.109900770852	0
0.5	0	0
0.474245721096	-0.130043839003	0
0.625	0	0
3.125	0	0
3	0	0
3.625	0	0
4.125	0	0
4	0	0
3.5	0	0
3.485533411273	-0.107014956798	0
5.67736414417	-0.368119689468	0
5.125	0	0
5	0	0
4.98353533542	-0.118243061674	0
6.125	0	0
6	0	0
6.009467825362	-0.139471566496	0
6.5	0	0
4.625	0	0
5.5	0	0
4.5	0	0
4.481603306259	-0.111052305129	0
2.5	0	0
2.486482293556	-0.110456056597	0
2.625	0	0
7.828740664136	-0.157959666613	0
7.5	0	0
7.497789303332	-0.098817221798	0
8.625	0	0
8.5	0	0
8.493725508365	-0.094448160765	0
8	0	0
10.625	0	0
9.625	0	0
9.5	0	0
9.125	0	0
10.5	0	0
10	0	0
9.976983002093	-0.106037154081	0
10.125	0	0
9	0	0
8.980258705317	-0.095443922293	0
12.625	0	0
11.625	0	0
11.5	0	0
13.625	0	0
12.5	0	0
12	0	0
11.983083448534	-0.113269018621	0
12.125	0	0
15.125	0	0
13.5	0	0
13.125	0	0
14.625	0	0
14.5	0	0
15	0	0
11.125	0	0
14	0	0
13.984735949845	-0.103165953766	0
14.125	0	0
13	0	0
12.987740386932	-0.109238757727	0
11	0	0
10.980033547654	-0.110118532971	0
7	0	0
7.012790729926	-0.096165366155	0
15.625	0	0
15.653391866104	-0.184257106926	0
15.75	0	0
16.25	0	0
16.151956269841	-0.190746813766	0
16.328162175541	-0.125534698515	0
15.827345422636	-0.12109528269	0
15.881623705918	-0.315197408181	0
15.9768075603	-0.104841845177	0
17.25	0	0
17.155473725888	-0.187015736188	0
17.328334720487	-0.12053442359	0
17.375	0	0
16.97978281674	-0.105790715925	0
16.830585534618	-0.124270763258	0
16.892220832712	-0.321708894118	0
16.75	0	0
16.655725821363	-0.19281499559	0
18.25	0	0
18.144056513649	-0.199584109463	0
18.322695877645	-0.133173012767	0
18.375	0	0
19.25	0	0
19.156955168382	-0.212194778097	0
19.332395147696	-0.137501625504	0
19.375	0	0
18.978107771567	-0.118463258117	0
18.827251646435	-0.137822523984	0
18.884674261801	-0.359498065923	0
18.75	0	0
18.648603260315	-0.210400354993	0
17.973004229039	-0.108213471414	0
17.823362138939	-0.124125311933	0
17.87020700187	-0.324156104502	0
17.75	0	0
17.64837652944	-0.187413016584	0
20.25	0	0
20.167288289523	-0.206556633625	0
20.33799343326	-0.133667464393	0
20.375	0	0
21.25	0	0
21.172020853715	-0.201327641466	0
21.340729826518	-0.130206344264	0
20.875	0	0
20.75	0	0
20.839555732676	-0.132066213667	0
20.987710400762	-0.112937783384	0
20.915843633601	-0.342386775443	0
20.669904108595	-0.203936882105	0
22.25	0	0
22.168893714495	-0.194483818359	0
22.337089427477	-0.126591453251	0
21.875	0	0
21.75	0	0
21.840184239699	-0.127666317168	0
23.25	0	0
23.162361450448	-0.215073727418	0
23.335945395372	-0.148199257458	0
22.875	0	0
22.75	0	0
22.83504078106	-0.133126573368	0
27.412614995451	-0.337768305098	0
27.406417478875	-0.760610856776	0
27.663031754041	-0.476449210851	0
23.674319496044	-0.139602731619	0
23.75	0	0
23.625	0	0
22.902876337082	-0.348446434986	0
22.664415839639	-0.19979598046	0
21.987454968006	-0.109075483352	0
21.916658702332	-0.330379709848	0
21.67241042914	-0.19774510361	0
19.984830323221	-0.115851903278	0
19.835879034474	-0.135573032779	0
19.906686139011	-0.351521653308	0
19.75	0	0
19.663378765328	-0.209646647928	0
24.75	0	0
24.672305039303	-0.121865624882	0
24.84054616259	-0.178479133746	0
24.25	0	0
24.125	0	0
24.179559510218	-0.145425217914	0
25.656694723316	-0.141492417978	0
25.75	0	0
25.625	0	0
25.25	0	0
25.125	0	0
25.159224348757	-0.109007087058	0
22.647257188685	-0.476376729768	0
22.872248033711	-0.780455516934	0
25.317652966423	-0.167196322239	0
31.908525182248	-0.237434634112	0
32.248547795208	-0.367887731521	0
32.025	0	0
26.398062594932	-0.327144710524	0
26.335089901602	-0.124890632532	0
26.169730315141	-0.188549564961	0
26.75	0	0
26.662500836065	-0.197477656933	0
26.835401004001	-0.129534360312	0
26.375	0	0
26.25	0	0
27.486869476066	-0.111474770432	0
27.338367230812	-0.130187170762	0
23.816158307302	-0.168335740772	0
23.875	0	0
24.625	0	0
27.75	0	0
27.67023663024	-0.198727549038	0
27.839431305592	-0.128541986375	0
27.375	0	0
27.25	0	0
28.75	0	0
28.666013303123	-0.192953151514	0
28.835335299513	-0.125393524551	0
28.875	0	0
28.41074998604	-0.32692743598	0
28.485854239984	-0.108071323096	0
28.338261561589	-0.126341817439	0
28.25	0	0
28.169650699531	-0.195402875109	0
29.75	0	0
29.656991685033	-0.201213204108	0
29.830700495316	-0.13323291855	0
29.875	0	0
30.75	0	0
30.665605116896	-0.213760177502	0
30.837855425721	-0.139272404211	0
30.875	0	0
30.987248292653	-0.119871959545	0
30.911614165903	-0.362389547989	0
31.25	0	0
31.174363802618	-0.217041176186	0
31.346460135447	-0.143418487957	0
30.400599561582	-0.360265197586	0
30.483280501431	-0.118794220148	0
30.3336351656	-0.137924489201	0
30.25	0	0
30.159375273254	-0.21004086356	0
29.392934647931	-0.331414044449	0
29.48031118177	-0.110263057575	0
29.331777210358	-0.127344913482	0
29.25	0	0
29.160548153072	-0.194064979946	0
27.167334579456	-0.200440763045	0
24.359650796728	-0.20304719459	0
-0.25	0	0
-0.404335947278	-0.221464959739	0
16.125	0	0
16	0	0
17.125	0	0
17	0	0
16.5	0	0
16.478267427857	-0.108008273171	0
16.625	0	0
18.125	0	0
18	0	0
19.125	0	0
19	0	0
18.5	0	0
18.473681471998	-0.115768873419	0
18.625	0	0
17.5	0	0
17.47687846862	-0.103462148239	0
17.625	0	0
20.125	0	0
20	0	0
21.125	0	0
21	0	0
20.5	0	0
20.486446843971	-0.114298370976	0
20.625	0	0
22.125	0	0
22	0	0
23.125	0	0
23	0	0
22.983281399654	-0.116385827149	0
23.5	0	0
23.509214189908	-0.149359691049	0
22.625	0	0
22.5	0	0
22.48467632496	-0.1093719097	0
21.5	0	0
21.488472844532	-0.111208801785	0
21.625	0	0
19.5	0	0
19.482219828947	-0.117572233456	0
19.625	0	0
24.5	0	0
24.525433875838	-0.108080714825	0
25.824234283709	-0.149177038136	0
25.5	0	0
25.498573523516	-0.096586408813	0
25	0	0
25.014769107289	-0.095147895568	0
21.919931345447	-0.741308582321	0
22.160361550711	-0.463896476278	0
26.625	0	0
26.5	0	0
26.482631880244	-0.108512805864	0
27.625	0	0
27.5	0	0
27	0	0
26.984612185119	-0.111680714924	0
27.125	0	0
26.125	0	0
26	0	0
25.990349817319	-0.10847866492	0
28.125	0	0
28.625	0	0
28.5	0	0
30.625	0	0
29.625	0	0
29.5	0	0
29	0	0
28.983089608831	-0.107750428826	0
29.125	0	0
30.125	0	0
30.5	0	0
31.63125	0	0
31.5	0	0
31.494696987447	-0.123712578064	0
23.671261205816	-0.380102168636	0
31	0	0
31.125	0	0
30	0	0
29.980228243528	-0.115525062547	0
28	0	0
[...]
CELL_DATA 2263
SCALARS 1000.00_0.74 double 1
LOOKUP_TABLE default
8.3917453344394 6.4692450983981 6.5578266118697 6.896836493441 6.3360172638186 6.585178711187 6.6281519227074 7.8023750232013 7.8123139338248 7.8843410081596 8.0108455571647 7.7703673204071 6.9574574090105 7.4374596955668 8.0221721396774 8.1595672581186 7.8427385528131 7.7400474478502 7.7995198795435 7.8514951423273 8.0596493624264 7.8574651276442 8.4422898877442 7.6657453304155 7.6089829183339 7.8017134132341 8.4372431876888 7.7435781256503 7.9984167945347 8.8016722522649 8.0046175524056 8.4539379973005 7.5765819563935 8.5476324146137 8.0299995164363 8.6170281169402 8.037002666927 8.3712268010912 8.0064746101688 8.9563639242015 8.8626228583363 7.8311792719038 9.0615706075668 8.1568023504376 7.8350192401211 8.2468980799398 8.2466450860032 8.3754049679796 8.0000696405749 8.2442487276017 7.9407336183979 8.0746596741964 8.3918784932108 8.8750230513129 8.544531650111 8.956340287053 8.6264134795562 8.0566407063864 8.6154100030713 8.4633512105291 8.4240554578156 9.0377907044583 8.1838555968797 8.6281274795795 8.8174854977805 6.440743010107 6.3726376735335 5.8961939094508 6.5756350317004 6.8571485188029 7.9983448101508 8.13022668086 7.5979386207915 7.8939455663919 6.9456090363629 6.3703181355998 7.5284690701252 7.8485116840326 7.8475864178447 8.1482633187229 7.8110432070447 8.2044110246107 8.1287846673468 8.0468972177718 8.3998861841992 8.1580634637083 7.7123478970435 8.0381592645014 8.3924939434904 8.1069178828088 8.1790004137827 7.8790804036731 8.1417597396591 6.9667877627667 8.4002236453358 8.6195407485827 8.0710240162286 8.5086222046013 8.195046417003 8.5475251417552 8.9650843552417 8.3252060027698 7.8915985586911 9.0739914115069 8.8831897964145 9.0737946541706 8.2821562127379 8.4019363937224 8.348705240159 8.4669270709788 8.1490015937282 8.2987397986396 8.1838239691981 7.977067897655 8.6229986382016 8.4293364579294 8.4561324655797 8.8316426088016 8.8374013198847 8.2439379365976 8.5361833918322 8.6503791278303 8.5914216390376 8.8626278291003 8.6650157079331 8.344643282368 8.4196472090657 8.1025878370924 9.3069357401602 8.8664026628445 8.998963990523 7.7607119622464 7.7656118526654 8.6071686179474 8.8996794993214 7.9493262624998 7.9289494171274 8.2656316036291 8.3224224996861 7.9254221983461 7.912786563011 8.1800297945674 8.2428407640913 9.0134742653253 9.144771303638 8.3453378528714 9.0840432541061 8.8415949870752 9.0317176425209 8.5727455282483 8.6546721043294 8.3989014478148 7.9280662929595 6.495589056279 7.8625625436723 7.8112135993377 7.9391717626842 8.5518891914528 8.6455874688665 8.053056286781 7.7975554547028 8.4995229185035 7.8239207934256 8.4295986020961 8.2808600806605 6.5777439538805 8.2160651525898 5.755595707382 7.9892632748362 7.8249914901148 8.2983907253094 7.7723790802312 7.8112509243948 8.5444030099194 8.302820701131 7.9289888664464 7.9400333335078 8.1299539062772 8.1950488483287 7.9394070950075 7.9581574295857 7.6620160728128 7.6424355346579 6.9659137422616 6.9676012056746 6.7496447010259 6.0839095633589 6.6123897747962 6.4634637906188 7.8526229957417 7.9124445260598 7.8790191357731 7.8231303808866 6.245611559919 9.1480314394055 8.9718853525427 8.3170688285103 8.9491639907929 9.2155683297586 8.9323359435156 8.3015977929049 8.3098468211645 8.3021358571847 8.0476865789787 8.0695335118479 8.2366012754954 7.8044242547213 8.28283656122 8.6795222271144 8.4280241379872 8.8693601911293 9.2690055752799 8.989438270683 8.7202293345055 8.8999064449344 7.8051109990001 8.4853854638492 8.1644515224516 8.0503808100225 8.4062979452514 8.5370584685491 8.8319203728297 9.0966987524019 8.1265457354278 7.9506642889488 7.80947871769 8.5142640534595 8.3384057530192 8.4839015700485 8.4794443476299 6.9231622097185 7.9216695535547 8.1475299093611 7.945481427276 8.0037173001161 7.947870685097 8.4209414522447 8.5079949358865 7.9561696621679 8.1761664434278 7.0268438211554 7.9949675589069 8.0943718246426 7.7786786093605 6.5460684159886 6.9452750729239 7.9112513649001 6.2346083696022 7.6964629039242 6.6240366391548 7.9293292242867 7.0712101824923 6.198659263395 8.0285034577443 8.1461806384966 7.9469153121692 8.7483827634035 6.0923941206245 9.2255183754257 6.3552760326084 7.9050395147135 6.8400310924731 6.7150547690217 7.1196712588461 7.9848256109894 7.9925656948215 7.8200378237525 8.1851081885586 6.966680809266 7.009241572751 7.6637468536003 7.6294392752965 8.1382395349379 8.2732473321943 7.8220183810283 8.0126089795487 7.9294345862777 8.2115164100029 7.166554381536 7.8647005368198 6.4494813114809 8.1475125313265 7.702453308958 8.3657927604659 8.0547424833031 8.1375363251603 8.1037707653732 7.989610443723 8.4195779455192 8.517322289162 8.5610034631625 8.1148901594807 8.4272719494212 8.3921662400219 8.6342275474514 8.9533611526143 8.9955234880463 8.949781455226 9.2144325205076 8.072813388713 8.0921369558829 8.4151211547567 8.2637213945537 8.3069850700512 8.6244533568555 8.05923090189 8.2039764697814 8.2950334050241 8.2803143718094 8.8088757951203 9.0038165843213 8.7077862095952 8.9741630202482 8.5972319722219 8.7972436230428 8.5085152712046 8.5159921991477 8.4264292422928 8.3752065313091 8.2495196832695 8.7295999045802 6.1500387682576 9.2885693722478 9.1726106020305 9.0231732322947 8.9568291180488 8.0243146147653 8.0403069507443 8.8899805415037 8.7790657175335 8.1863229135914 8.0125524893613 8.2866605062107 8.3359283191286 7.9891024574178 8.1754956972712 8.2921477635641 8.3270447211206 8.8265508558625 9.3260538772747 8.6307263745621 8.630066779735 9.1365146345828 9.0967099634958 8.7977908556564 8.5276482592417 8.503611403246 8.3537056316454 7.5997108448206 7.9458124321859 8.2118399701499 8.192273627218 8.8036052652437 8.8061909513655 7.9462126839293 8.2860470988855 8.4533654101171 8.5524253734765 8.2470424343628 8.4246903973191 8.295517603869 8.358034518945 7.993262832038 7.9214898808097 8.437167851968 8.2400617820892 7.9305889003896 8.0868797693331 8.126584249605 8.2328825287038 7.9525815017694 8.1733047929188 7.8678005518231 7.4394732242055 7.0026742818518 6.8483799533539 6.4149798614458 6.0752750931479 6.790296165042 6.704053802554 7.9721071103569 8.0716184797439 7.8915490912693 8.0300699846105 7.3099889447153 8.288235926346 6.013472497513 6.3711825882952 6.1561691866393 6.4865194954855 6.2177688068497 6.4409169608807 6.9904958540204 7.0985752270844 8.0951485096141 7.4348563052694 6.7716467324244 6.9557830444796 6.7559487449092 6.6767456120286 6.9685567641656 8.2284580620826 7.1383731500146 7.9154498912019 7.5757634398556 7.455155861955 8.0067900291821 7.9002234391514 7.6698294621099 6.537758736062 7.7523500159642 8.4514327107768 7.8752202187905 4.671552609162 7.7428567972454 7.961609459948 7.7652699809089 7.7569014748988 8.3579875971891 8.6037062672836 8.3062622743684 8.4021505363627 7.8765592259418 8.3083954574388 7.7424311009733 8.0600831054525 9.1621230864154 7.6705726691448 8.1379102722042 8.40474948811 8.0095389424297 8.3730994471376 8.1870566858677 7.5904594689594 7.9846661699043 7.8373802348139 8.2244953132867 8.0977856583965 8.4535170076032 8.0399203410691 8.6708352934994 8.6695251647422 8.5274810415299 9.2040241647166 8.2878467071845 8.171734852564 8.0405953144443 8.3971340068782 8.7095898752271 8.7723432762566 7.6288360092243 7.9506249426792 8.2561410324964 8.8907039564355 8.9616466395261 8.6015594552048 8.962544997704 7.5122211639218 8.8283022107594 8.6986943954915 8.2563356271729 7.3330229101945 7.9552948008928 7.6931528607662 8.0745610387702 7.8567091913071 8.2482837027417 7.9620370338842 7.8433873727714 8.3480955922391 7.8654498701135 8.5574074517592 8.2692963978717 8.9141655313083 7.7231943740575 8.4188000453929 8.0198220675852 8.0483211996495 7.9681976289126 8.1666427482202 8.4822861013043 8.3219525451401 8.6002818418459 8.4445577025928 7.9397340761635 8.0947185359947 8.025958578624 8.3419037513008 7.4735727715078 7.8406709163837 7.3647919201124 6.6533803499731 7.731019424325 7.9981744664472 7.9534930049171 8.2840520166982 7.1569839705306 7.3911803425777 8.0304138722878 7.1255504871373 7.6915276947491 7.8460882654054 7.9696377644546 6.3565976928059 6.4420081314289 6.0042656785517 6.7215760720325 5.9058010421099 7.7235690283149 7.3442457617288 7.8938765558068 8.0051698409477 8.0278926221928 7.5933495184807 7.9388635851688 7.6795868916209 5.9606839342216 6.0220978415669 6.1504296572547 5.6985457935402 6.5311814179489 6.690405360626 6.7046651297861 6.8172156534389 7.6092027389369 7.8595342976273 7.7161483426317 8.1099223249537 6.8218420075664 7.0100900034466 7.3211651585452 7.4940306281639 7.8279077941972 8.2170176123843 7.5798707821404 7.8783305856746 6.4296640614694 8.0003447876417 7.3226130718468 7.8924603183858 5.8803674336869 7.7174001134512 7.6861881589695 8.377602016486 7.1649943728344 8.0775902262273 7.6869909181361 7.9899590140739 8.5288048146842 8.431176915244 8.1471379039751 8.5999712453365 7.8855537972326 8.277038780242 8.2417262167753 8.4689888554895 8.6807068629423 9.0272577173636 8.7044769870871 9.1530841426409 7.879446629356 7.939352866425 8.035490806689 8.2406892192253 8.2202522455423 8.5282847741971 7.835687049649 8.0651146942336 8.0548480874623 8.1333694709318 8.6663276738479 8.9765656322968 8.6354230615655 8.7905545323679 8.3950702014568 8.695732889217 8.2920983778346 8.4863703651799 8.1443958360162 8.2681301321092 7.3103405101274 8.7208816445258 8.9590980827193 9.1627005570594 8.601566854041 8.884938223233 7.8368113770515 7.8877714046511 8.5736069964778 8.8958604420876 7.7862977021684 7.9470972087475 7.9778229133347 8.3217765185619 7.7588303678603 8.029788470366 8.1031568500641 8.2799123873605 8.6732969494557 9.1940092622266 8.2719969726753 8.4565819343421 8.7161201562003 9.0890575072954 8.2536347261917 8.5248450178436 7.3425746664637 8.3511256261253 6.4354539164891 7.8417673555046 7.4255315253683 8.0095366532471 8.4017021368724 8.6904953818587 7.801928952537 8.0119102431174 6.0602626812545 8.5451753498834 8.236142719448 8.3358794754407 7.2822190742164 8.2075644393279 7.8236917423046 7.8467984220112 6.8245548791479 8.2431938225134 7.7118870750528 8.0201593637184 7.9049906010159 8.2007224170184 7.7949471075345 8.0770921190282 7.3894007402153 7.5634141822936 6.7394897950029 6.9192929487817 6.0906788508191 6.0294872260995 6.5058293485913 6.5487237775415 7.7504280303193 8.0075595754435 7.6380546090212 7.9555073177609 7.1826279979275 7.9333249050816 6.0904166405387 7.2773322521468 6.0931486738139 7.7464740937622 7.0714968482432 7.5001549625931 6.3338042499363 6.8917999635108 5.9905293456908 6.3897097899643 7.0872067646738 7.8143131422721 7.1650068616022 6.8383290660673 6.915482732635 6.991345983786 7.9534300762489 7.9341741774326 7.0037056310244 8.3281064150827 7.1815145642966 8.7026487195526 6.5620918038429 7.9165994389528 8.042928418644 8.3903242481413 6.3692781095775 7.100722411326 7.1438958404437 8.4341679722964 8.4904277584061 8.4901872755879 7.2696388353148 7.9464850625287 7.6666279652752 8.5018841179852 8.0694561646585 7.9558224853509 7.761278441 7.9177020647352 7.0765965159909 6.440089699517 6.8977884445522 8.3513557047664 7.6541541514783 8.2720116042368 6.8282860165216 7.4270065901847 7.2586895012303 8.6831133283556 7.505865248877 8.4915316251471 8.2726219493012 8.1942693188816 7.2823288270766 7.8421489767943 7.0611919136422 7.8477535822639 7.3057930336324 7.9146094145295 7.2531347767045 7.4644312460643 7.7519515252836 7.7588070379825 7.7231879320109 8.0831737876497 7.6618625177187 7.7902300579591 7.375209467635 8.0068523200185 6.7147608932896 7.9096973597987 7.3474935285136 8.8063650413873 6.5607510222437 7.2521367913206 7.1693507491309 7.713676094156 6.9753547947994 8.478564965635 7.7908025460303 8.1147940079223 7.0737229398087 7.9938829681848 8.1048111696145 6.2425083560825 7.7631392453187 4.4714122629996 6.7034108321471 6.183122567778 5.9000040922832 7.6358911984991 6.331136551452 7.7990646004327 6.6151894877355 7.340688051454 5.9185638009254 7.944073022989 8.2826862665466 7.6954994917982 7.7523418698701 7.4649882440652 8.1411730345922 7.7642172217211 7.7887737727827 7.2959474836152 7.0824689184134 7.8563643258344 7.3955488805693 6.9888663362178 7.1774395180723 7.2773128398786 6.3027675853414 6.531935269471 5.8821684765757 6.1067099194109 5.5283606629041 5.6924719582978 5.9112197451219 6.4901967761835 6.7787289039258 7.3366538765671 7.4881908954486 8.1553990987808 6.5910605232678 6.7784854404819 5.6553446706734 5.8199423847761 7.5648923279075 6.3539154370828 5.6204582495793 5.7847098634931 6.1105567163004 6.328067690403 5.8801842071773 6.0425162985561 4.9318763812726 5.8517467754669 5.6111670975242 6.999641776056 5.8467028842629 6.436521714625 6.362563106698 6.4210343643397 5.9986766865141 5.88703773727 5.6765110251751 7.0155668360956 8.0870442052464 6.3112285947416 6.34072508547 7.0910836296857 6.8162200386632 7.5499591886752 6.8796297716249 6.4659846702993 8.0753962399552 4.2392510534653 7.1706911517339 6.3903876768152 7.1573454188942 6.358327314502 6.332431415813 5.8069629947934 6.3785541840804 7.6206046698863 7.2265104250801 7.2837211844528 5.8938770334523 7.9744660641086 7.0740565047804 7.7556159853306 7.2751350944395 8.2070295107295 7.5026839207241 7.4994113970063 7.722469507488 7.4008713879785 6.8276355249327 7.5995626747688 6.8940065054792 8.1023391158542 8.4744352054212 7.8662841812043 7.5987190660814 7.7846136441399 7.2688824604867 7.8530796094906 7.2478097071483 6.4036861974573 6.7367256344315 7.81979482888 7.1378220822391 6.6540034628642 6.2619432848676 4.2659985310983 6.2058425702902 5.5881735995308 7.8352497366579 7.1108441330903 8.1084753530482 7.8207947576481 7.2734391490234 7.9994917669736 6.9672568270028 7.613199134026 7.3249756947437 7.2373267909147 6.8108257134968 7.4126815907712 6.5900239141267 7.6967957956665 7.0475921262319 6.6746683521825 5.9960078139686 7.9850935963926 7.4521776560934 7.7970628144379 7.0508523597219 7.6033969369805 7.0757548844812 7.6634596999574 7.4141777802099 6.9811624671142 8.1278925468253 7.7722173889405 6.2715039623418 4.8138947012896 6.5414456485522 7.3328432963564 6.7085132861239 5.996995787016 6.3319634030589 6.886339137536 8.2480002332766 7.7631389007658 4.8792913380635 6.7548840522611 6.73155027755 4.8468190488269 7.1156453046794 7.2988116032678 4.7765904832245 7.0717797482511 6.7641999535581 6.3590696243907 5.611180462719 6.3549397942982 5.9053756038726 7.0133852773353 6.1340528579914 7.3015818354033 6.6625573459199 6.2677782702144 5.608321205093 7.6238258022651 8.5219092822984 8.3543794844045 6.6402562163941 6.3086849242264 5.5806978998805 7.3016391519398 4.573930788564 6.1997645769263 7.793787938959 5.789905517466 4.8772959487205 5.5750095416726 3.9324035714491 4.6200523550912 6.8732171312902 5.6779639991381 7.0878989113578 5.8509383043917 5.0760867375424 5.3145092776091 7.9658796349879 6.6731719732029 7.0857050740795 7.470583704893 6.554022581697 5.7828518920472 7.9824162329595 5.8122848585318 4.3820623639421 4.6865990442693 4.7755658419474 6.2160769384533 5.0214061293488 7.1319646506047 7.1784551151358 7.3831569035093 7.1224979988203 7.2894690893455 6.6123393314918 4.656519771326 6.4617593768068 6.8401697873386 4.4393493689789 7.3435103930644 7.1964870997184 5.5300931072068 7.2668605574635 5.1400282760567 6.7468445058014 4.743558393081 7.1368714341132 5.1362857035718 6.61703615591 4.5466706500492 6.4056356373612 4.7240616927937 7.2755748929697 4.0451235710139 6.6109053627805 6.6134499281055 4.4349453740834 2.9742825287201 5.4153159816939 6.3758254362953 5.595092520838 5.242170597473 6.6598708558867 5.7712252443631 7.2320166011017 5.4733379284814 5.0182168029774 6.8580404847127 5.4894892000957 6.6456705917003 4.8084102855204 5.4316846053445 6.2735975059891 4.9946258536182 7.1729869687152 5.2745723596165 6.5994114414211 7.0325906439718 5.8230057682406 5.084221311606 6.2008755484575 4.4356855839948 6.9383298270038 7.1646391720027 6.3713266714061 7.5738928476307 6.9947666226553 3.730365892444 7.0806888518279 4.7011497583999 6.2245005739918 4.6950138914954 6.6277022723898 4.6894974802733 6.0468791629225 6.8005359709458 4.8145266245131 6.4295868410725 6.9955228432044 6.5889301894093 6.459225445593 5.8476138732614 5.2113764107404 5.5410251284576 4.7402683401027 5.1432327356869 6.5850442712999 5.0739485131453 5.9752547894325 3.7345853331535 6.7631798317283 4.7017380887724 6.2345633375289 7.858309662843 8.0808381199862 6.5382253194041 8.5323492422456 6.0112929009161 6.5470730472366 6.2616097758598 5.3805070993884 4.3974989335667 6.2574397308628 4.7079868599378 4.248081460664 5.0082264033629 4.552589430568 5.7110167267201 4.7661618309583 4.6794033467499 3.2820604089369 5.4019334335666 5.2072345447601 5.616803623427 5.4134183501859 5.0912755203047 3.8309761579246 4.7133580450599 5.4361406649751 5.3939659950494 5.3873772417312 4.541012850156 5.5954907385822 5.3418956165877 5.270410285197 6.4477652541538 4.6614098527179 5.3291737252996 4.9799456984024 5.2353123662136 5.4874327816078 4.6937235588996 6.5356669123532 7.155796482305 6.5179423940265 5.6953195754832 4.5014080198144 5.6032258270427 5.5296587495593 6.7504713233046 4.9745723993115 4.3998825638131 6.5299902488362 4.985881345462 4.1922490645822 4.885832535048 5.5500906719558 4.2983717311313 4.4620533999957 4.9063389653532 4.6925787804121 3.7060952625075 4.4225777916771 4.0402363930363 4.2725828505688 3.6846400307461 3.6219494555182 4.9128553940322 4.0757761196135 3.3816170278523 3.3510931841385 2.9305077402196 3.3343167165418 3.5075898380375 5.5026920750891 5.5394863207268 5.1121411932854 5.2371303556608 7.9736241142463 4.3540230110262 5.2335269985232 4.7823741883782 6.5743297787142 7.1459645628682 4.4312816954554 4.8437094496587 5.4826274263616 6.6673739810104 5.104680180012 4.987983770471 6.4978914391422 5.290544701666 4.1358009324815 4.5343576550481 4.7692812116784 4.3649173351183 3.6967975809707 4.4429863852805 3.9004610255617 4.5351232691038 4.9610607488738 5.1461209311271 4.2175787620647 4.4417237132175 5.3155698341405 4.8795145254925 4.274139297006 4.5058918963232 4.0957268457059 5.2471755543764 4.3089158470357 3.1945001670088 4.8639643845329 4.2223639740068 3.6402217002952 3.9494665890089 4.5366387926287 3.6401621442607 3.5406597910631 4.8690750412277 5.3032368559119 5.2549140586054 3.5694597058562 2.956146144684 4.0182508288289 4.8544926124054 4.8333230398265 4.8606750369066 5.1370367625286 4.2748444216105 4.4653948910631 3.909071748637 3.6571092815635 3.2802277622847 3.644837086554 4.3686789534694 3.2800430920356 3.2205333542205 4.0070333360413 3.4046102144025 3.7311211090381 4.1321432929057 3.8576086357856 4.5203965932313 4.2999692617689 4.8616706506485 4.8293954940762 4.0771500138744 4.277149389158 4.6287565362179 4.0104284205274 3.4106195485838 5.0343960080914 5.0274639204654 5.4474347339703 3.5896632194419 4.8374236547128 4.7574983872295 4.753232203782 4.3879169912572 3.8462187517278 3.5181230481402 4.4551872222883 3.482532878968 5.3794600650064 5.8184514976496 3.8129267429341 4.3604383991838 3.7621297209711 4.6858769265273 5.2981809541712 5.0863406214503 3.6403742591495 4.0321449421287 2.8532712508826 3.8501504724493 3.3768896732248 5.1879099877979 4.0934573996728 4.4231159510037 3.725465100213 3.3076396971472 4.3068340277838 3.7214688919329 4.4675442703943 3.1996381657104 3.3010029102729 4.8952158943898 3.9521696880307 3.6201711898002 4.5883279707053 4.1464491934022 4.8299028029323 3.5636042802384 4.2001984053901 3.9231869621635 3.582713799058 4.4546754399452 4.2221328622649 5.1618384465757 4.3284410483243 4.7626778310797 4.6945832754741 5.2062843350088 5.3604939944403 5.4804828165579 4.0976304505977 4.9027318875989 4.4997750774338 3.7098920448063 3.3440021220879 3.7872972756156 3.5740231835883 3.9250088367166 3.8542712940158 3.2025842839776 4.4333558706843 4.899277476838 3.6218054693922 3.4082852688039 4.4356249055572 3.3077426846014 4.3828349420801 3.543348491578 3.5632706218071 2.9742914201562 3.8723819512617 2.9854967922258 2.9918392177703 3.7142226507474 3.2938281721714 3.7972333881924 4.5195543056163 3.8414923028313 3.0342596493626 3.2592357404485 3.6984395764646 4.3312993511907 4.8955172314539 4.0