# vtk DataFile Version 3.0
d-2__ created by libgimli-v1.0.12
ASCII
DATASET UNSTRUCTURED_GRID
POINTS 1505 double
-20	0	0
-20	-30	0
51.5	-30	0
51.5	0	0
-2	-7	0
-2	0	0
33.5	0	0
33.5	-7	0
0	0	0
0.077641724994424	-0.24268267895028	0
0.5	0	0
0.50593652725407	-0.28210290984007	0
1	0	0
0.99258391730507	-0.28435464344455	0
1.5	0	0
1.4779030208664	-0.30279426008696	0
2	0	0
1.9767064733187	-0.32570285679331	0
2.5	0	0
2.482742194095	-0.32093032093478	0
3	0	0
2.9767647745946	-0.30711747775196	0
3.5	0	0
3.464246243065	-0.32361963602326	0
4	0	0
3.9727443905495	-0.34753557013934	0
4.5	0	0
4.4881664283869	-0.33947660466868	0
5	0	0
5.0016409889187	-0.35856071802467	0
5.5	0	0
5.533727024837	-0.35202723239123	0
6	0	0
6.0408187484561	-0.29038365413971	0
6.5	0	0
6.5092645538006	-0.26113581926347	0
7	0	0
6.9731076741689	-0.26381993200627	0
7.5	0	0
7.4416053756439	-0.29931984891581	0
8	0	0
7.9516984528497	-0.3668459649851	0
8.5	0	0
8.5030844856752	-0.36858945754419	0
9	0	0
9.0211818317399	-0.30614306529941	0
9.5	0	0
9.4958470908779	-0.2809985327049	0
10	0	0
9.9763369786194	-0.29734731702904	0
10.5	0	0
10.47864364233	-0.31467200730351	0
11	0	0
10.986485807297	-0.31514302888316	0
11.5	0	0
11.49636159774	-0.32541529733509	0
12	0	0
12.005623621473	-0.31445107308377	0
12.5	0	0
12.497828976017	-0.29699664552326	0
13	0	0
13.002860045387	-0.35828792761603	0
13.5	0	0
13.52387464798	-0.35277697967035	0
14	0	0
14.018706719442	-0.2826444788338	0
14.5	0	0
14.506371599453	-0.29210375455334	0
15	0	0
15.004191600948	-0.28909528023757	0
15.5	0	0
15.489406683275	-0.27434582873654	0
16	0	0
15.983255950961	-0.3389016735345	0
16.5	0	0
16.501612197569	-0.34215213742149	0
17	0	0
17.003631371939	-0.28248707956828	0
17.5	0	0
17.495210342426	-0.29990034914202	0
18	0	0
17.997921496403	-0.29881674651181	0
18.5	0	0
18.484105334759	-0.27295557973457	0
19	0	0
18.966169317211	-0.31005241213223	0
19.5	0	0
19.480348428142	-0.33888520588065	0
20	0	0
20.018712727156	-0.35360693543718	0
20.5	0	0
20.559314821241	-0.33827002495023	0
21	0	0
21.058606634552	-0.26926987820631	0
21.5	0	0
21.511803555641	-0.23867550959363	0
22	0	0
21.972516320514	-0.27617216063649	0
22.5	0	0
22.470450344248	-0.30654549149944	0
23	0	0
22.991740224601	-0.32100802754629	0
23.5	0	0
23.505076305755	-0.31172754378394	0
24	0	0
23.998176284657	-0.28263771342538	0
24.5	0	0
24.47644385756	-0.27995331948514	0
25	0	0
24.955320280482	-0.30864894893095	0
25.5	0	0
25.474548380858	-0.36865264573461	0
26	0	0
26.027536391263	-0.36391612519345	0
26.5	0	0
26.540855923248	-0.29695391445849	0
27	0	0
27.011411488786	-0.2637267976386	0
27.5	0	0
27.476864008151	-0.2641899500898	0
28	0	0
27.948358191257	-0.29878370815112	0
28.5	0	0
28.466413283877	-0.36839977332346	0
29	0	0
29.028896989123	-0.36963151011807	0
29.5	0	0
29.549172726817	-0.29751267681337	0
30	0	0
30.013805225464	-0.25914890522896	0
30.5	0	0
30.484907567403	-0.29139997873862	0
31	0	0
30.99733735792	-0.30776235292977	0
31.5	0	0
31.478002069352	-0.25758233454948	0
15.75	-7	0
0.25	0	0
1.25	0	0
2.25	0	0
1.75	0	0
0.75	0	0
3.25	0	0
4.25	0	0
3.75	0	0
5.25	0	0
6.25	0	0
6.75	0	0
5.75	0	0
4.75	0	0
2.75	0	0
7.75	0	0
8.75	0	0
8.25	0	0
9.75	0	0
10.75	0	0
10.25	0	0
9.25	0	0
11.75	0	0
12.75	0	0
12.25	0	0
13.75	0	0
14.75	0	0
15.25	0	0
14.25	0	0
13.25	0	0
11.25	0	0
7.25	0	0
-1	0	0
15.75	0	0
16.25	0	0
17.25	0	0
16.75	0	0
18.25	0	0
19.25	0	0
18.75	0	0
17.75	0	0
20.25	0	0
21.25	0	0
20.75	0	0
22.25	0	0
23.25	0	0
23.75	0	0
22.75	0	0
21.75	0	0
19.75	0	0
24.75	0	0
25.75	0	0
25.25	0	0
26.75	0	0
26.25	0	0
27.75	0	0
28.75	0	0
28.25	0	0
29.75	0	0
30.75	0	0
31.25	0	0
30.25	0	0
29.25	0	0
27.25	0	0
24.25	0	0
32.5	0	0
-0.5	0	0
32	0	0
-0.25	0	0
31.75	0	0
-2	-4	0
33.5	-4	0
1.0255215455221	-1.9996739174707	0
31.345667239139	-0.74622677206915	0
11.214406497226	-0.7498641299711	0
18.330974355526	-1.8065923635833	0
14.092060748073	-1.7908586266189	0
13.300531851058	-1.1325131922743	0
16.219639378149	-1.0849632677877	0
19.13816888052	-0.90338188188357	0
20.4060931271	-1.8720076575812	0
17.484530127731	-1.4238080357868	0
0.75807660873582	-0.73808691787067	0
30.670898101885	-0.85991787359276	0
2.7197012744677	-0.79866952886644	0
18.264175156123	-0.64706231465572	0
12.277816902254	-0.68040673941095	0
3.6294578125959	-0.90324558965655	0
17.223225835144	-0.64636864829988	0
15.266799482651	-0.62133108839831	0
15.477743781679	-1.6537573692388	0
11.767873093286	-0.89919515917202	0
10.715057555364	-0.81651049321607	0
6.875	-7	0
14.767836011912	-0.83599683479348	0
13.846909798003	-0.69674599168849	0
12.699520679783	-0.7266958530828	0
15.672081814591	-0.67115059714801	0
17.739784999049	-0.87152493879374	0
16.804056744746	-0.68898063258222	0
18.658364514692	-0.65422206138223	0
5.2750089159435	-1.010556901112	0
20.352488964982	-0.99208894530667	0
19.737414639092	-0.80364989044703	0
11.85680939658	-1.6658110462077	0
9.6866967135141	-0.71162779307509	0
28.735353512514	-1.0795694018531	0
3.5095340198587	-1.5489079466099	0
1.6893121066916	-1.4661801924265	0
8.8624733803732	-0.84091779260487	0
1.2074244257107	-0.66766880033874	0
30.210367745465	-0.61385524933248	0
2.2079867893766	-0.81388009880778	0
12.614758913207	-1.8916923558523	0
14.255302765958	-0.63724453442134	0
16.955818638745	-1.8193333037361	0
24.625	-7	0
20.984646018413	-0.74992969427932	0
19.695817246132	-1.4288963920372	0
14.56615471563	-1.381970631781	0
30.029476067261	-1.0476291954612	0
29.449095221266	-0.84247545566005	0
28.050576474448	-0.83086496440227	0
21.354397333978	-0.55503484389069	0
7.5311729792917	-0.83296429632804	0
29.850501942143	-0.61207597857011	0
30.492062913408	-1.709842503332	0
1.6701505070677	-0.84164289217924	0
4.228829759725	-0.86302403294188	0
3.1725424513948	-0.70497814441688	0
10.171006509538	-0.77376238450233	0
8.183485445205	-1.0636580391473	0
11.105444116062	-1.3937405798654	0
14.137997434165	-1.0791689716797	0
12.419467393925	-1.1659835782724	0
15.401831479442	-1.0364603942045	0
17.071272937792	-1.0891377223354	0
18.437443626609	-1.13732148591	0
4.7148255595293	-0.80335786995105	0
18.986217351103	-1.6481484189095	0
10.332267605691	-1.3517566315777	0
27.64400751284	-0.62765768622195	0
25.759277184797	-1.0547255369842	0
29.498101771248	-1.6492114688698	0
1.1399760689162	-1.1711327400048	0
2.4078658583639	-1.4510239477042	0
5.9182088439476	-0.80016439167258	0
4.5810613995291	-1.4413614182608	0
3.073957122612	-1.1904548253192	0
3.0064215321966	-1.7329147191592	0
9.2843431301406	-0.65110959218769	0
7.1333060082833	-0.62837051595833	0
9.8346515452015	-1.1499301605794	0
9.3536880451647	-1.1148372499747	0
9.6265256504157	-1.7957283686658	0
14.525418577751	-2.4719604775905	0
15.008041124444	-1.3521207335347	0
17.398339655367	-2.5292189800722	0
17.940901899578	-1.4298559932616	0
22.128644772539	-0.8169024503601	0
21.697385927817	-0.56718571349188	0
21.063018940334	-1.3929289361998	0
27.234314908248	-0.6584216206698	0
27.998155572885	-1.5245797162646	0
26.419612310857	-0.82379086631358	0
25.081867691237	-0.84896343216313	0
0.21422480115138	-0.70989051335464	0
1.9936388742714	-1.1433039012247	0
6.3236741039469	-0.61574007653682	0
3.9883730929412	-1.3360711576453	0
2.6739491892901	-2.2682441660278	0
6.7260998232614	-0.65481433026239	0
7.4800425690185	-1.5450317963131	0
8.8241323756628	-1.5368418308476	0
11.923412762559	-2.5529076193913	0
14.828512805015	-1.8534631587442	0
17.709358601165	-1.910454637585	0
23.266955355883	-0.89665182878115	0
22.701406807736	-0.72720565101676	0
21.519711835952	-0.94651625695332	0
26.828320181886	-0.6253394845969	0
27.509801406269	-1.0848978352543	0
24.656691683757	-0.65874604148889	0
-0.25370370461496	-0.46438573930765	0
3.9942811039505	-1.9189460028533	0
3.3695177412521	-2.1992395132253	0
6.9928615466193	-1.0869381111892	0
15.303790605884	-2.4718552105214	0
18.142839008632	-2.4546297650611	0
23.780688985268	-0.67699739513849	0
22.650223998377	-1.2908634086185	0
21.890344655823	-1.5929939431076	0
26.935753967426	-1.0824117066692	0
27.195588003607	-1.7828638608016	0
24.227151498263	-0.70551052715968	0
25.103799653309	-1.5495733896788	0
-2	-2	0
6.4227002855094	-1.0680057240643	0
6.6617534654813	-1.7857566852872	0
26.426973815463	-1.5154531914488	0
24.545127178314	-1.1454950236769	0
23.33528593855	-1.7524361690572	0
5.9118459494116	-1.4571035681289	0
24.295844814614	-1.9189094594773	0
23.908363844734	-1.183063868062	0
32.023911275622	-0.49194488351383	0
1.9031315439074	-2.1866250138703	0
4.6043203938075	-2.2949176945806	0
31.131149982024	-1.3045150550807	0
33.5	-2	0
30.811120267533	-2.668994173632	0
32.535025526158	-1.1474962769842	0
31.768957999657	-1.2569664382555	0
31.374621251924	-1.9506643418189	0
31.840231930533	-2.8628178348268	0
32.199986308553	-1.9018852133781	0
28.650055026242	-1.9717816663393	0
8.1272052377932	-1.9473047701681	0
10.537747644513	-2.1790708767943	0
16.108691071705	-2.1273078432001	0
15.087900323051	-3.6334367343285	0
17.869130701968	-3.1893865313649	0
0.49034617633179	-1.3132981776583	0
25.784524289388	-1.901662423152	0
5.2635846886068	-1.8482721428894	0
24.335054061816	-2.9086191126739	0
18.759784067468	-2.2592664995709	0
32.81181883557	-0.52787762922236	0
32.90251786012	-1.7071679925942	0
25.620045266313	-3.7150973460415	0
27.843074298032	-2.3944456752205	0
7.3784872070923	-2.5409376921508	0
8.7875468423647	-2.4530037825393	0
-0.62756145415956	-1.9844957704958	0
-0.29195638035991	-1.2188778580238	0
-0.77172338454115	-0.61498158508831	0
-1.392721076655	-0.60360713482196	0
-2	-1	0
-1.1917613021599	-1.4030976064928	0
26.468043502832	-2.4406140650299	0
5.9287484388112	-2.2201506934106	0
25.160879847642	-2.4128470750325	0
33.5	-1	0
33.5	-3	0
29.204198713131	-2.4036025363654	0
29.0625	-7	0
29.918192551982	-2.4903606039756	0
0.097219349311275	-2.0418808760119	0
-0.49198202767991	-2.8585409700253	0
0.47991010785259	-2.8753577368679	0
-1.258192762956	-2.3997169421332	0
27.773972181252	-3.9589131204076	0
-2	-3	0
25.748133401452	-2.9416032262361	0
28.613464322339	-2.7783100752773	0
29.330916306721	-3.1288363988393	0
13.489795864495	-2.7963526180116	0
21.224316167449	-2.1954847060675	0
[...]
CELL_DATA 2785
SCALARS _Attribute double 1
LOOKUP_TABLE default
0 0 0 0 0 0 0 0 0 0 0 0 0 0 0 0 0 0 0 0 0 0 0 0 0 0 0 0 0 0 0 0 0 0 0 0 0 0 0 0 0 0 0 0 0 0 0 0 0 0 0 0 0 0 0 0 0 0 0 0 0 0 0 0 0 0 0 0 0 0 0 0 0 0 0 0 0 0 0 0 0 0 0 0 0 0 0 0 0 0 0 0 0 0 0 0 0 0 0 0 0 0 0 0 0 0 0 0 0 0 0 0 0 0 0 0 0 0 0 0 0 0 0 0 0 0 0 0 0 0 0 0 0 0 0 0 0 0 0 0 0 0 0 0 0 0 0 0 0 0 0 0 0 0 0 0 0 0 0 0 0 0 0 0 0 0 0 0 0 0 0 0 0 0 0 0 0 0 0 0 0 0 0 0 0 0 0 0 0 0 0 0 0 0 0 0 0 0 0 0 0 0 0 0 0 0 0 0 0 0 0 0 0 0 0 0 0 0 0 0 0 0 0 0 0 0 0 0 0 0 0 0 0 0 0 0 0 0 0 0 0 0 0 0 0 0 0 0 0 0 0 0 0 0 0 0 0 0 0 0 0 0 0 0 0 0 0 0 0 0 0 0 0 0 0 0 0 0 0 0 0 0 0 0 0 0 0 0 0 0 0 0 0 0 0 0 0 0 0 0 0 0 0 0 0 0 0 0 0 0 0 0 0 0 0 0 0 0 0 0 0 0 0 0 0 0 0 0 0 0 0 0 0 0 0 0 0 0 0 0 0 0 0 0 0 0 0 0 0 0 0 0 0 0 0 0 0 0 0 0 0 0 0 0 0 0 0 0 0 0 0 0 0 0 0 0 0 0 0 0 0 0 0 0 0 0 0 0 0 0 0 0 0 0 0 0 0 0 0 0 0 0 0 0 0 0 0 0 0 0 0 0 0 0 0 0 0 0 0 0 0 0 0 0 0 0 0 0 0 0 0 0 0 0 0 0 0 0 0 0 0 0 0 0 0 0 0 0 0 0 0 0 0 0 0 0 0 0 0 0 0 0 0 0 0 0 0 0 0 0 0 0 0 0 0 0 0 0 0 0 0 0 0 0 0 0 0 0 0 0 0 0 0 0 0 0 0 0 0 0 0 0 0 0 0 0 0 0 0 0 0 0 0 0 0 0 0 0 0 0 0 0 0 0 0 0 0 0 0 0 0 0 0 0 0 0 0 0 0 0 0 0 0 0 0 0 0 0 0 0 0 0 0 0 0 0 0 0 0 0 0 0 0 0 0 0 0 0 0 0 0 0 0 0 0 0 0 0 0 0 0 0 0 0 0 0 0 0 0 0 0 0 0 0 0 0 0 0 0 0 0 0 0 0 0 0 0 0 0 0 0 0 0 0 0 0 0 0 0 0 0 0 0 0 0 0 0 0 0 0 0 0 0 0 0 0 0 0 0 0 0 0 0 0 0 0 0 0 0 0 0 0 0 0 0 0 0 0 0 0 0 0 0 0 0 0 0 0 0 0 0 0 0 0 0 0 0 0 0 0 0 0 0 0 0 0 0 0 0 0 0 0 0 0 0 0 0 0 0 0 0 0 0 0 0 0 0 0 0 0 0 0 0 0 0 0 0 0 0 0 0 0 0 0 0 0 0 0 0 0 0 0 0 0 0 0 0 0 0 0 0 0 0 0 0 0 0 0 0 0 0 0 0 0 0 0 0 0 0 0 0 0 0 0 0 0 0 0 0 0 0 0 0 0 0 0 0 0 0 0 0 0 0 0 0 0 0 0 0 0 0 0 0 0 0 0 0 0 0 0 0 0 0 0 0 0 0 0 0 0 0 0 0 0 0 0 0 0 0 0 0 0 0 0 0 0 0 0 0 0 0 0 0 0 0 0 0 0 0 0 0 0 0 0 0 0 0 0 0 0 0 0 0 0 0 0 0 0 0 0 0 0 0 0 0 0 0 0 0 0 0 0 0 0 0 0 0 0 0 0 0 0 0 0 0 0 0 0 0 0 0 0 0 0 0 0 0 0 0 0 0 0 0 0 0 0 0 0 0 0 0 0 0 0 0 0 0 0 0 0 0 0 0 0 0 0 0 0 0 0 0 0 0 0 0 0 0 0 0 0 0 0 0 0 0 0 0 0 0 0 0 0 0 0 0 0 0 0 0 0 0 0 0 0 0 0 0 0 0 0 0 0 0 0 0 0 0 0 0 0 0 0 0 0 0 0 0 0 0 0 0 0 0 0 0 0 0 0 0 0 0 0 0 0 0 0 0 0 0 0 0 0 0 0 0 0 0 0 0 0 0 0 0 0 0 0 0 0 0 0 0 0 0 0 0 0 0 0 0 0 0 0 0 0 0 0 0 0 0 0 0 0 0 0 0 0 0 0 0 0 0 0 0 0 0 0 0 0 0 0 0 0 0 0 0 0 0 0 0 0 0 0 0 0 0 0 0 0 0 0 0 0 0 0 0 0 0 0 0 0 0 0 0 0 0 0 0 0 0 0 0 0 0 0 0 0 0 0 0 0 0 0 0 0 0 0 0 0 0 0 0 0 0 0 0 0 0 0 0 0 0 0 0 0 0 0 0 0 0 0 0 0 0 0 0 0 0 0 0 0 0 0 0 0 0 0 0 0 0 0 0 0 0 0 0 0 0 0 0 0 0 0 0 0 0 0 0 0 0 0 0 0 0 0 0 0 0 0 0 0 0 0 0 0 0 0 0 0 0 0 0 0 0 0 0 0 0 0 0 0 0 0 0 0 0 0 0 0 0 0 0 0 0 0 0 0 0 0 0 0 0 0 0 0 0 0 0 0 0 0 0 0 0 0 0 0 0 0 0 0 0 0 0 0 0 0 0 0 0 0 0 0 0 0 0 0 0 0 0 0 0 0 0 0 0 0 0 0 0 0 0 0 0 0 0 0 0 0 0 0 0 0 0 0 0 0 0 0 0 0 0 0 0 0 0 0 0 0 0 0 0 0 0 0 0 0 0 0 0 0 0 0 0 0 0 0 0 0 0 0 0 0 0 0 0 0 0 0 0 0 0 0 0 0 0 0 0 0 0 0 0 0 0 0 0 0 0 0 0 0 0 0 0 0 0 0 0 0 0 0 0 0 0 0 0 0 0 0 0 0 0 0 0 0 0 0 0 0 0 0 0 0 0 0 0 0 0 0 0 0 0 0 0 0 0 0 0 0 0 0 0 0 0 0 0 0 0 0 0 0 0 0 0 0 0 0 0 0 0 0 0 0 0 0 0 0 0 0 0 0 0 0 0 0 0 0 0 0 0 0 0 0 0 0 0 0 0 0 0 0 0 0 0 0 0 0 0 0 0 0 0 0 0 0 0 0 0 0 0 0 0 0 0 0 0 0 0 0 0 0 0 0 0 0 0 0 0 0 0 0 0 0 0 0 0 0 0 0 0 0 0 0 0 0 0 0 0 0 0 0 0 0 0 0 0 0 0 0 0 0 0 0 0 0 0 0 0 0 0 0 0 0 0 0 0 0 0 0 0 0 0 0 0 0 0 0 0 0 0 0 0 0 0 0 0 0 0 0 0 0 0 0 0 0 0 0 0 0 0 0 0 0 0 0 0 0 0 0 0 0 0 0 0 0 0 0 0 0 0 0 0 0 0 0 0 0 0 0 0 0 0 0 0 0 0 0 0 0 0 0 0 0 0 0 0 0 0 0 0 0 0 0 0 0 0 0 0 0 0 0 0 0 0 0 0 0 0 0 0 0 0 0 0 0 0 0 0 0 0 0 0 0 0 0 0 0 0 0 0 0 0 0 0 0 0 0 0 0 0 0 0 0 0 0 0 0 0 0 0 0 0 0 0 0 0 0 0 0 0 0 0 0 0 0 0 0 0 0 0 0 0 0 0 0 0 0 0 0 0 0 0 0 0 0 0 0 0 0 0 0 0 0 0 0 0 0 0 0 0 0 0 0 0 0 0 0 0 0 0 0 0 0 0 0 0 0 0 0 0 0 0 0 0 0 0 0 0 0 0 0 0 0 0 0 0 0 0 0 0 0 0 0 0 0 0 0 0 0 0 0 0 0 0 0 0 0 0 0 0 0 0 0 0 0 0 0 0 0 0 0 0 0 0 0 0 0 0 0 0 0 0 0 0 0 0 0 0 0 0 0 0 0 0 0 0 0 0 0 0 0 0 0 0 0 0 0 0 0 0 0 0 0 0 0 0 0 0 0 0 0 0 0 0 0 0 0 0 0 0 0 0 0 0 0 0 0 0 0 0 0 0 0 0 0 0 0 0 0 0 0 0 0 0 0 0 0 0 0 0 0 0 0 0 0 0 0 0 0 0 0 0 0 0 0 0 0 0 0 0 0 0 0 0 0 0 0 0 0 0 0 0 0 0 0 0 0 0 0 0 0 0 0 0 0 0 0 0 0 0 0 0 0 0 0 0 0 0 0 0 0 0 0 0 0 0 0 0 0 0 0 0 0 0 0 0 0 0 0 0 0 0 0 0 0 0 0 0 0 0 0 0 0 0 0 0 0 0 0 0 0 0 0 0 0 0 0 0 0 0 0 0 0 0 0 0 0 0 0 0 0 0 0 0 0 0 0 0 0 0 0 0 0 0 0 0 0 0 0 0 0 0 0 0 0 0 0 0 0 0 0 0 0 0 0 0 0 0 0 0 0 0 0 0 0 0 0 0 0 0 0 0 0 0 0 0 0 0 0 0 0 0 0 0 0 0 0 0 0 0 0 0 0 0 0 0 0 0 0 0 0 0 0 0 0 0 0 0 0 0 0 0 0 0 0 0 0 0 0 0 0 0 0 0 0 0 0 0 0 0 0 0 0 0 0 0 0 0 0 0 0 0 0 0 0 0 0 0 0 0 0 0 0 0 0 0 0 0 0 0 0 0 0 0 0 0 0 0 0 0 0 0 0 0 0 0 0 0 0 0 0 0 0 0 0 0 0 0 0 0 0 0 0 0 0 0 0 0 0 0 0 0 0 0 0 0 0 0 0 0 0 0 0 0 0 0 0 0 0 0 0 0 0 0 0 0 0 0 0 0 0 0 0 0 0 0 0 0 0 0 0 0 0 0 0 0 0 0 0 0 0 0 0 0 0 0 0 0 0 0 0 0 0 0 0 0 0 0 0 0 0 0 0 0 0 0 0 0 0 0 0 0 0 0 0 0 0 0 0 0 0 0 0 0 0 0 0 0 0 0 0 0 0 0 0 0 0 0 0 0 0 0 0 0 0 0 0 0 0 0 0 0 0 0 0 0 0 0 0 0 0 0 0 0 0 0 0 0 0 0 0 0 0 0 0 0 0 0 0 0 0 0 0 0 0 0 0 0 0 0 0 0 0 0 0 0 0 0 0 0 0 0 0 0 0 0 0 0 0 0 0 0 0 0 0 0 0 0 0 0 0 0 0 0 0 0 0 0 0 0 0 0 0 0 0 0 0 0 0 0 0 0 0 0 0 0 0 0 0 0 0 0 0 0 0 0 0 0 0 0 0 0 0 0 0 0 0 0 0 0 0 0 0 0 0 0 0 0 0 0 0 0 0 0 0 0 0 0 0 0 0 0 0 0 0 0 0 0 0 0 0 0 0 0 0 0 0 0 0 0 0 0 0 0 0 0 0 0 0 0 0 0 0 0 0 0 0 0 0 0 0 0 0 0 0 0 0 0 0 0 0 0 0 0 0 0 0 0 0 0 0 0 0 0 0 0 0 0 0 0 0 0 0 0 0 0 0 0 0 0 0 0 0 0 0 0 0 0 0 0 0 0 0 0 0 0 0 0 0 0 0 0 0 0 0 0 0 0 0 0 0 0 0 0 0 0 0 0 0 0 0 0 0 0 0 0 0 0 0 0 0 0 0 0 0 0 0 0 0 0 0 0 0 0 0 0 0 0 0 0 0 0 0 0 0 0 0 0 0 0 0 0 0 0 0 0 0 0 0 0 0 0 0 0 0 0 0 0 0 0 0 0 0 0 0 0 0 0 0 0 0 0 0 0 0 0 0 0 0 0 0 0 0 0 0 0 0 0 0 0 0 0 0 0 0 0 0 0 0 0 0 0 0 0 0 0 0 0 0 0 0 0 0 0 0 0 0 0 0 0 0 0 0 0 0 0 0 0 0 0 0 0 0 0 0 0 0 0 0 0 0 0 0 0 0 0 0 0 0 0 0 0 0 0 0 0 0 0 0 0 0 0 0 0 0 0 0 0 0 0 0 0 0 0 0 0 0 0 0 0 0 0 0 0 0 0 0 0 0 0 0 0 0 0 0 0 
SCALARS _Marker double 1
LOOKUP_TABLE default
1 2 2 2 2 2 2 2 2 2 2 2 2 2 2 2 2 2 2 2 2 2 2 2 2 2 2 2 2 2 2 2 2 2 2 2 2 2 2 2 2 2 2 2 2 2 2 2 2 2 2 2 2 2 2 2 2 2 2 2 2 2 2 2 1 2 2 1 2 2 1 1 2 2 2 2 2 2 2 2 2 2 2 2 2 2 2 2 2 2 2 2 2 2 2 2 2 2 2 2 2 2 2 2 2 2 2 2 2 2 2 2 2 2 2 2 2 2 2 2 2 2 2 2 2 2 2 2 2 2 2 2 2 1 2 2 2 2 2 2 2 2 2 2 2 2 2 2 2 2 2 2 2 2 2 2 2 2 2 2 2 2 2 2 2 2 2 2 2 2 2 2 2 2 2 2 2 2 2 2 2 2 2 1 2 2 2 2 2 2 2 2 2 2 2 2 1 2 1 2 2 2 2 2 2 2 2 2 2 2 2 2 2 2 2 2 2 2 2 2 2 2 2 2 2 2 2 2 2 2 2 2 2 2 2 2 2 2 2 2 2 2 2 2 2 2 2 2 2 2 2 2 2 2 2 2 1 2 2 2 2 2 2 2 2 2 2 2 2 2 2 2 2 2 2 2 2 2 2 2 2 2 2 2 2 2 2 2 2 2 2 2 2 2 2 2 2 2 2 2 2 2 2 2 2 2 2 2 2 2 2 2 2 2 2 2 2 2 1 2 2 2 2 2 2 2 2 2 2 2 2 2 2 2 2 2 2 2 2 2 2 2 2 2 2 1 2 2 2 2 2 2 2 2 2 2 2 2 2 2 2 2 2 2 2 2 2 2 2 2 2 2 2 2 2 2 2 2 2 2 2 2 2 2 2 2 2 2 2 2 2 2 2 2 2 2 2 2 2 2 2 2 2 2 2 2 2 2 2 2 2 2 2 2 2 2 2 2 2 2 2 2 2 2 2 2 2 2 2 2 2 2 2 2 2 2 2 2 2 2 2 2 2 2 2 2 2 2 2 2 2 2 2 2 2 2 2 2 2 2 2 2 2 2 2 2 2 2 2 2 2 2 2 2 2 2 2 2 2 2 2 2 2 2 2 2 2 2 2 2 2 2 2 2 2 2 2 2 2 2 2 2 2 2 2 2 2 2 2 2 2 2 2 2 2 2 2 2 2 2 2 2 2 2 2 2 2 2 2 2 2 2 2 2 2 2 2 2 2 2 2 2 2 2 2 2 2 2 2 1 2 2 2 2 2 2 2 2 2 1 2 2 2 2 2 2 2 2 1 2 2 2 2 2 2 2 1 2 2 2 2 2 2 2 2 2 2 2 2 2 2 2 2 2 2 2 2 2 2 2 2 2 2 2 2 2 2 2 2 2 2 2 2 2 2 2 1 2 1 2 2 2 2 2 2 2 2 2 2 2 2 2 2 2 2 2 1 2 2 2 2 2 2 2 2 1 2 2 2 2 2 2 2 2 2 2 1 2 2 2 2 2 2 2 2 2 2 2 2 2 2 2 2 2 2 2 2 2 2 2 2 2 2 2 1 2 2 2 2 2 2 2 2 2 2 2 2 2 2 2 2 2 2 2 2 2 2 2 2 2 2 2 2 2 2 2 2 2 2 2 2 2 2 2 2 2 2 2 2 2 2 2 2 2 2 1 2 2 2 2 2 2 2 2 2 2 2 2 2 2 2 2 1 2 2 2 2 2 2 2 2 2 2 2 2 2 2 2 2 2 2 2 2 2 2 2 2 1 2 2 2 2 2 2 2 2 1 2 2 2 2 1 2 2 2 2 2 2 2 2 2 2 2 2 2 2 1 2 2 2 2 2 2 2 2 2 1 2 2 2 2 2 2 2 2 2 2 2 2 2 2 2 2 2 2 2 2 2 2 2 2 2 2 2 2 2 2 2 2 2 2 2 2 2 2 2 2 2 1 2 2 2 2 2 2 2 1 2 2 2 2 2 1 2 2 2 2 2 2 2 2 2 2 2 2 2 2 2 2 1 2 2 2 2 2 2 2 2 2 1 2 2 2 2 2 2 2 2 2 2 2 2 2 2 2 2 2 2 2 2 2 2 2 2 2 2 1 2 1 2 2 2 2 2 2 2 1 2 2 2 2 2 2 2 2 2 2 2 2 2 2 2 2 2 2 2 2 2 2 2 2 2 2 2 2 2 2 2 2 2 2 2 1 2 2 2 2 2 2 2 2 2 2 2 2 1 2 2 2 2 2 2 1 2 2 2 2 2 2 2 2 2 2 2 1 2 2 2 2 1 2 2 2 2 2 2 2 2 2 2 2 2 2 2 2 2 2 2 2 2 2 1 2 2 2 2 2 2 2 2 1 1 1 1 1 1 1 1 1 2 2 2 2 2 2 2 2 2 2 2 2 2 1 2 2 2 1 2 2 2 2 2 2 2 2 2 2 2 2 2 1 2 2 2 2 2 2 2 1 2 2 2 2 2 2 2 2 1 2 2 1 1 1 1 1 1 1 1 1 1 2 1 2 2 2 2 2 2 2 2 2 2 2 2 2 2 2 2 2 2 2 2 2 2 2 1 2 2 1 1 2 2 1 1 2 2 1 1 1 1 1 1 1 1 1 2 2 2 1 2 2 1 1 2 2 2 2 1 1 2 1 1 1 1 1 1 1 1 1 1 1 2 2 1 1 1 1 1 1 1 1 2 2 2 1 2 2 2 2 1 1 1 1 1 1 1 1 1 1 2 1 2 2 1 1 1 1 1 1 1 1 1 1 2 2 2 2 2 2 2 2 2 1 2 2 2 2 2 2 2 2 1 1 1 1 2 1 2 2 2 2 1 2 2 2 1 1 1 1 1 1 1 1 1 1 1 1 1 1 1 1 1 1 1 1 1 1 1 1 1 1 1 1 1 1 1 1 1 1 1 1 1 1 1 1 1 1 1 1 1 1 1 1 1 1 1 1 1 1 1 1 1 1 1 1 1 1 1 1 1 1 1 2 2 2 2 2 2 2 2 1 1 1 1 1 1 1 1 1 1 1 1 1 1 1 1 1 1 1 1 1 1 1 1 1 1 1 1 1 1 1 1 1 1 1 1 1 1 1 1 1 1 1 1 1 1 1 1 1 1 1 1 1 1 1 1 1 1 1 1 1 1 1 1 1 1 1 1 1 1 1 1 1 1 1 1 1 1 1 1 1 1 1 1 1 1 1 1 1 1 1 1 1 1 1 1 1 1 1 1 1 1 1 1 1 1 1 1 1 1 1 1 1 1 1 1 1 1 1 1 1 1 1 1 1 1 1 1 1 1 1 1 1 1 1 1 1 1 1 1 1 1 1 1 1 1 1 1 1 1 1 1 1 1 1 1 1 1 1 1 1 1 1 1 1 1 1 1 1 1 1 1 1 1 1 1 1 1 1 1 1 1 1 1 1 1 1 1 1 1 1 1 1 1 1 1 1 1 1 1 1 1 1 1 1 1 1 1 1 1 1 1 1 1 1 1 1 1 1 1 1 1 1 1 1 1 1 1 1 1 1 1 1 1 1 1 1 1 1 1 1 1 1 1 1 1 1 1 1 1 1 1 1 1 1 1 1 1 1 1 1 1 1 1 1 1 1 1 1 1 1 1 1 1 1 1 1 1 1 1 1 1 1 1 1 1 1 1 1 1 1 1 1 1 1 1 1 1 1 1 1 1 1 1 1 1 1 1 1 1 1 1 1 1 1 1 1 1 1 1 1 1 1 1 1 1 1 1 1 1 1 1 1 1 1 1 1 1 1 1 1 1 1 1 1 1 1 1 1 1 1 1 1 1 1 1 1 1 1 1 1 1 1 1 1 1 1 1 1 1 1 1 1 1 1 1 1 1 1 1 1 1 1 1 1 1 1 1 1 1 1 1 1 1 1 1 1 1 1 1 1 1 1 1 1 1 1 1 1 1 1 1 1 1 1 1 1 1 1 1 1 1 1 1 1 1 1 1 1 1 1 1 1 1 1 1 1 1 1 1 1 1 1 1 1 1 1 1 1 1 1 1 1 1 1 1 1 1 1 1 1 1 1 1 1 1 1 1 1 1 1 1 1 1 1 1 1 1 1 1 1 1 1 1 1 1 1 1 1 1 1 1 1 1 1 1 1 1 1 1 1 1 1 1 1 1 1 1 1 1 1 1 1 1 1 1 1 1 1 1 1 1 1 1 1 1 1 1 1 1 1 1 1 1 1 1 1 1 1 1 1 1 1 1 1 1 1 1 1 1 1 1 1 1 1 1 1 1 1 1 1 1 1 1 1 1 1 1 1 1 1 1 1 1 1 1 1 1 1 1 1 1 1 1 1 1 1 1 1 1 1 1 1 1 1 1 1 1 1 1 1 1 1 1 1 1 1 1 1 1 1 1 1 1 1 1 1 1 1 1 1 1 1 1 1 1 1 1 1 1 1 1 1 1 1 1 1 1 1 1 1 1 1 1 1 1 1 1 1 1 1 1 1 1 1 1 1 1 1 1 1 1 1 1 1 1 1 1 1 1 1 1 1 1 1 1 1 1 1 1 1 1 1 1 1 1 1 1 1 1 1 1 1 1 1 1 1 1 1 1 1 1 1 1 1 1 1 1 1 1 1 1 1 1 1 1 1 1 1 1 1 1 1 1 1 1 1 1 1 1 1 1 1 1 1 1 1 1 1 1 1 1 1 1 1 1 1 1 1 1 1 1 1 1 1 1 1 1 1 1 1 1 1 1 1 1 1 1 1 1 1 1 1 1 1 1 1 1 1 1 1 1 1 1 1 1 1 1 1 1 1 1 1 1 1 1 1 1 1 1 1 1 1 1 1 1 1 1 1 1 1 1 1 1 1 1 1 1 1 1 1 1 1 1 1 1 1 1 1 1 1 1 1 1 1 1 1 1 1 1 1 1 1 1 1 1 1 1 1 1 1 1 1 1 1 1 1 1 1 1 1 1 1 1 1 1 1 1 1 1 1 1 1 1 1 1 1 1 1 1 1 1 1 1 1 1 1 1 1 1 1 1 1 1 1 1 1 1 1 1 1 1 1 1 1 1 1 1 1 1 1 1 1 1 1 1 1 1 1 1 1 1 1 1 1 1 1 1 1 1 1 1 1 1 1 1 1 1 1 1 1 1 1 1 1 1 1 1 1 1 1 1 1 1 1 1 1 1 1 1 1 1 1 1 1 1 1 1 1 1 1 1 1 1 1 1 1 1 1 1 1 1 1 1 1 1 1 1 1 1 1 1 1 1 1 1 1 1 1 1 1 1 1 1 1 1 1 1 1 1 1 1 1 1 1 1 1 1 1 1 1 1 1 1 1 1 1 1 1 1 1 1 1 1 1 1 1 1 1 1 1 1 1 1 1 1 1 1 1 1 1 1 1 1 1 1 1 1 1 1 1 1 1 1 1 1 1 1 1 1 1 1 1 1 1 1 1 1 1 1 1 1 1 1 1 1 1 1 1 1 1 1 1 1 1 1 1 1 1 1 1 1 1 1 1 1 1 1 1 1 1 1 1 1 1 1 1 1 1 1 1 1 1 1 1 1 1 1 1 1 1 1 1 1 1 1 1 1 1 1 1 1 1 1 1 1 1 1 1 1 1 1 1 1 1 1 1 1 1 1 1 1 1 1 1 1 1 1 1 1 1 1 1 1 1 1 1 1 1 1 1 1 1 1 1 1 1 1 1 1 1 1 1 1 1 1 1 1 1 1 1 1 1 1 1 1 1 1 1 1 1 1 1 1 1 1 1 1 1 1 1 1 1 1 1 1 1 1 1 1 1 1 1 1 1 1 1 1 1 1 1 1 1 1 1 1 1 1 1 1 1 1 1 1 1 1 1 1 1 1 1 1 1 1 1 1 1 1 1 1 1 1 1 1 1 1 1 1 1 1 1 1 1 1 1 1 1 1 1 1 1 1 1 1 1 1 1 1 1 1 1 1 1 1 1 1 1 1 1 1 1 1 1 1 1 1 1 1 1 1 1 1 1 1 1 1 1 1 1 1 1 1 1 1 1 1 1 1 1 1 1 1 1 1 1 1 1 1 1 1 1 1 1 1 1 1 1 1 1 1 1 1 1 1 1 1 1 1 1 1 1 1 1 1 1 1 1 1 1 1 1 1 1 1 1 1 1 1 1 1 1 1 1 1 1 1 1 1 1 1 1 1 1 1 1 1 1 1 1 1 1 1 1 1 1 1 1 1 1 1 1 1 1 1 1 1 1 1 1 1 1 1 1 1 1 1 1 1 1 1 1 1 1 1 1 1 1 1 1 1 1 1 1 1 1 
POINT_DATA 1505
