# vtk DataFile Version 3.0
d-2__ created by libgimli-v1.0.12
ASCII
DATASET UNSTRUCTURED_GRID
POINTS 643 double
8.26734535398	-0.841719949509	0
7.557943954382	-1.0966403646	0
8.065145117233	-1.394448781353	0
0.491688001619	-0.337793246669	0
0.5	0	0
0.25	0	0
-0.432182426902	-0.493120374568	0
0.035486447755	-0.291927345908	0
-0.25	0	0
0.153594787174	-0.921312623909	0
2.669223842975	-0.926052094998	0
2.476257670651	-0.320891106913	0
2.1867633849	-0.693062836777	0
1.517856783727	-0.323951624719	0
1.5	0	0
1.25	0	0
0.743184927557	-0.808414876679	0
1.009834562583	-0.343965223165	0
2.5	0	0
2.25	0	0
1.801584669225	-0.69579324563	0
1.997454347846	-0.290347050765	0
1.316455292902	-0.938946651637	0
2	0	0
1.75	0	0
1	0	0
0.75	0	0
3.495460573424	-0.342844737767	0
3.5	0	0
3.25	0	0
2.980648500035	-0.338031948282	0
4.526341261963	-0.349167797562	0
4.5	0	0
4.25	0	0
3.223858072945	-0.7774363501	0
3.755023243159	-0.939083487314	0
4.008928045252	-0.345899641032	0
4	0	0
3.75	0	0
5.542984115479	-0.309103645511	0
5.5	0	0
5.25	0	0
4.285911476752	-0.790207510923	0
6.536273054681	-0.298521592857	0
6.5	0	0
6.25	0	0
5.041105022532	-0.340150743513	0
4.848712717906	-0.967253068915	0
5.369990474036	-0.754296117125	0
5.85426786975	-0.772771118225	0
6.035799329289	-0.294841057559	0
7.037197776941	-0.286172449215	0
7	0	0
6.75	0	0
6	0	0
5.75	0	0
5	0	0
4.75	0	0
30.321222850838	-1.250743665768	0
30.345288892899	-1.809205816926	0
31.006435316593	-1.600112850834	0
3	0	0
2.75	0	0
8.004166828714	-0.287089623282	0
8	0	0
7.75	0	0
14.06077532018	-1.674701779475	0
14.068394957674	-1.065639094428	0
13.50087088524	-1.451347896445	0
8.989371480441	-0.254459471254	0
9	0	0
8.75	0	0
7.737981946628	-0.620970536872	0
7.517478704143	-0.259260382769	0
7.342890885092	-0.618127222524	0
8.506115467486	-0.28498362459	0
8.5	0	0
8.25	0	0
9.972377913884	-0.303280168027	0
10	0	0
9.75	0	0
8.781590037619	-0.609083964025	0
9.170298519708	-0.603261850079	0
11.010616273613	-0.310335601759	0
11	0	0
10.75	0	0
9.467245824481	-0.281771518621	0
9.638350980758	-0.809297330053	0
10.494798616198	-0.317167826673	0
10.5	0	0
10.25	0	0
9.5	0	0
9.25	0	0
11.99548212361	-0.309500183949	0
12	0	0
11.75	0	0
10.206054535148	-0.712768117549	0
13.03460634048	-0.302462591325	0
13	0	0
12.75	0	0
12.243081906438	-0.88740363201	0
12.511675723632	-0.315952663428	0
12.873938957132	-1.229885835596	0
13.381980490953	-0.807307965026	0
12.5	0	0
12.25	0	0
14.016103004852	-0.251877449649	0
14	0	0
13.75	0	0
12.809010661694	-0.709157563469	0
14.998374190628	-0.288681607244	0
15	0	0
14.75	0	0
14.230107959312	-0.599199324358	0
13.847317041418	-0.601695816056	0
14.495432809405	-0.277065553896	0
15.509096591935	-0.285735397848	0
15.5	0	0
15.25	0	0
14.723264531615	-0.79490366125	0
14.5	0	0
14.25	0	0
13.539963790964	-0.281059570821	0
13.5	0	0
13.25	0	0
11.502774742404	-0.282639512148	0
11.5	0	0
11.25	0	0
7.5	0	0
7.25	0	0
15.260345797021	-0.65806614554	0
0	0	0
-1	-2	0
-0.042808875054	-1.779948148129	0
-0.464288434573	-1.23884494359	0
-0.5	0	0
16.008890205367	-0.27187038273	0
15.75	0	0
16.487111265512	-0.253164162516	0
16.5	0	0
16.25	0	0
16.658857375704	-0.612606894893	0
17.166748655408	-0.923614955059	0
16.971282188817	-0.300727306564	0
17.485042758216	-0.311659713203	0
17.5	0	0
17.25	0	0
16.269832737757	-0.583091814024	0
17	0	0
16.75	0	0
18.49026232633	-0.30761079753	0
18.5	0	0
18.25	0	0
17.990973960263	-0.280503270576	0
17.765030202104	-0.673170751362	0
19.488415836336	-0.265561763143	0
19.5	0	0
19.25	0	0
19.672482277747	-0.625608449574	0
20.144745640562	-0.818666195075	0
19.967674581038	-0.28772849064	0
18.195391882481	-0.66829648108	0
19.000221976857	-0.302336730294	0
19	0	0
18.75	0	0
18	0	0
17.75	0	0
20.467369365388	-0.302331599617	0
20.5	0	0
20.25	0	0
21.4785350505	-0.319641206921	0
21.5	0	0
21.25	0	0
20.97363594939	-0.310926487048	0
20.684983056824	-0.697014654756	0
21	0	0
20.75	0	0
22.495507319955	-0.334550312303	0
22.5	0	0
22.25	0	0
21.705711573406	-0.738928861364	0
21.986091654451	-0.329873887928	0
23.513400240183	-0.333582717239	0
23.5	0	0
23.25	0	0
22.223160002632	-0.913170727266	0
22.753552832292	-0.760077269692	0
23.006254224637	-0.335393901189	0
24.019362482387	-0.330216634218	0
24	0	0
23.75	0	0
23	0	0
22.75	0	0
22	0	0
21.75	0	0
19.277755064458	-0.641405507175	0
20	0	0
19.75	0	0
25.017008958257	-0.298740202969	0
25	0	0
24.75	0	0
26.294519420715	-0.954603295664	0
26.009126883683	-0.328155329349	0
25.74316311167	-0.71003993739	0
26	0	0
25.75	0	0
25.275588664844	-0.753306564951	0
25.506391988699	-0.299223139694	0
24.312668112034	-0.902398587862	0
24.814164983529	-0.71286124284	0
24.523237956951	-0.321295584913	0
25.5	0	0
25.25	0	0
32	0	0
31.75	0	0
31.906807038705	-0.484082984508	0
27.025381053085	-0.308376024993	0
27	0	0
26.75	0	0
26.519754232125	-0.328928233886	0
26.808984815661	-0.707505889629	0
23.786916547457	-0.749439862703	0
26.5	0	0
26.25	0	0
27.995583137268	-0.268915195384	0
28	0	0
27.75	0	0
28.977466419157	-0.324073222805	0
29	0	0
28.75	0	0
28.47234092997	-0.303116830069	0
28.65479240249	-0.878731923869	0
27.797570234091	-0.637194100842	0
27.520953625254	-0.292024780457	0
28.5	0	0
28.25	0	0
30.003281486075	-0.325886230793	0
30	0	0
29.75	0	0
30.736713929862	-0.836307538783	0
30.264874677952	-0.727220735468	0
31.002297044571	-0.317821134496	0
31	0	0
30.75	0	0
29.219117731567	-0.754143124389	0
29.494586815324	-0.330347838693	0
31.820346353958	-1.316427505899	0
31.321646213961	-0.804046785347	0
31.455231000826	-0.267750327997	0
31.5	0	0
31.25	0	0
30.501239522701	-0.315524231541	0
30.5	0	0
30.25	0	0
29.5	0	0
29.25	0	0
27.5	0	0
27.25	0	0
24.5	0	0
24.25	0	0
16	0	0
-1	0	0
-1	-1	0
32.5	0	0
1.989666019305	-1.233734400388	0
6.863754175933	-0.824760527774	0
3.219157999931	-1.341882318935	0
2.609034975292	-1.780281454181	0
3.29676229473	-2.00355285588	0
4.864370364313	-1.805044555895	0
4.290753572073	-1.349513103168	0
11.711256974917	-0.677986918055	0
11.302372821581	-0.678772247432	0
15.795323335384	-0.776675643246	0
15.275063298912	-1.140326480366	0
15.843408571902	-1.488043703819	0
17.9855606163	-1.178318938268	0
18.519844973003	-1.499201894838	0
18.744088688453	-0.899454190765	0
19.482820991508	-1.112383283552	0
28.177403141442	-0.647797675257	0
1.042908311093	-1.995036835291	0
1.409337908843	-1.669083744004	0
0.744628344325	-1.50103966239	0
29.760589588235	-0.906359360491	0
6.317299319825	-0.681477455412	0
10.77453899223	-0.891942758081	0
10.150119276387	-1.240589870178	0
11.512831015657	-1.229335977218	0
14.733873794355	-1.52323196771	0
16.3981706498	-0.997883271292	0
16.92453690772	-2.370130218806	0
17.647979543867	-2.274523661384	0
17.412115486799	-1.703808859682	0
21.184274197653	-0.855379659538	0
20.654528462103	-1.196144543539	0
21.135507163552	-1.44482019993	0
23.807803873005	-1.261748169606	0
24.296200924496	-1.646058008722	0
20.081622434665	-1.504310739189	0
28.561417297097	-1.638459712791	0
27.965806423224	-1.148296715066	0
29.206906025928	-1.329542097592	0
27.327473354266	-0.82695513541	0
6.958195298369	-1.572330828935	0
5.563184183931	-1.38038969662	0
6.296638755016	-1.214220036681	0
8.974584635086	-1.059166964677	0
9.527252747372	-1.458958509107	0
-0.2809833827	-2.622318296888	0
0.590667364967	-2.397673927046	0
10.74510890623	-1.749609335817	0
12.288001931267	-1.73283426955	0
15.292003662726	-1.590420255381	0
18.093284297521	-1.875425632569	0
20.050976081265	-2.2270498272	0
19.460384743682	-1.815696566975	0
19.368403406356	-2.502605588276	0
18.997105888679	-1.477994829177	0
18.776720184298	-2.060100092493	0
21.656582750327	-1.274584483279	0
23.282011078439	-0.915591197874	0
22.761356579159	-1.298852489967	0
23.34678798383	-1.659721996684	0
22.204339317602	-1.647781307969	0
24.942873357023	-1.283153220798	0
25.630462591071	-1.209919637855	0
26.877519822345	-1.115961664749	0
27.294693294774	-1.571825942865	0
29.80996906135	-1.621992788555	0
5.711773118045	-2.710158331741	0
6.411306214732	-2.928099591179	0
6.223349671972	-2.050265334154	0
1.935868556723	-1.935043976865	0
8.510591054554	-1.373682247669	0
8.319346161929	-1.855602552755	0
8.926321420711	-1.714553122278	0
10.009278408364	-1.816527074448	0
12.783062231891	-3.101165449426	0
11.99792406261	-2.644830434748	0
12.054546590196	-3.590444625623	0
3.761760703037	-1.626801709073	0
13.020742034585	-1.783508693958	0
13.598996521631	-2.139925671762	0
14.400044801647	-2.177579792341	0
16.653626605559	-1.5986739338	0
15.315056685716	-2.207283148473	0
20.695082305892	-1.852110113998	0
21.486804111202	-2.042000890155	0
29.23220101267	-2.173164737804	0
28.359416794109	-2.461733423721	0
28.99425766728	-3.019383956312	0
27.946615202612	-1.834252831784	0
7.670187010487	-1.800238924638	0
4.22933903001	-1.968552349685	0
4.111232162359	-2.525907903317	0
3.502553110553	-2.672774184437	0
4.01534634172	-3.112789034967	0
8.319570796625	-2.937494367696	0
8.907491246516	-3.165150980522	0
8.760805951922	-2.420510433375	0
14.133792927873	-3.986472178562	0
13.576453470301	-3.413257725877	0
13.466538902273	-4.095985910306	0
11.52557900515	-1.984638406537	0
9.405248365978	-2.72670671853	0
11.407516095864	-3.175924087333	0
11.084373764624	-2.558276980669	0
10.671170565718	-3.266729840161	0
2.886981980761	-3.165256283392	0
2.24552423078	-2.583850425343	0
2.221346184336	-3.302578788735	0
18.21052794881	-2.522965957242	0
22.759847689925	-1.889188780162	0
20.760816186432	-2.697070432089	0
23.824237402438	-1.687581009936	0
29.72816072835	-4.626642595486	0
29.638952651221	-5.438491536962	0
30.25473557946	-5.177263462684	0
27.548695467423	-2.342077485835	0
26.105600846311	-1.710588290897	0
26.66138610647	-1.513771956363	0
29.518059649207	-3.702922929041	0
29.700853704493	-2.87880889714	0
7.982884842679	-2.42712138484	0
2.908020132939	-2.440739000472	0
7.137370352975	-2.445175711052	0
9.734060627796	-3.4142460353	0
16.171339323802	-2.093490739872	0
26.21875	-6	0
27.265625	-6	0
26.689747789663	-5.271883038557	0
23.147717905815	-2.375630991782	0
23.847367574527	-2.177560004341	0
24.851294189958	-1.901857953023	0
27.82557187722	-3.035064435451	0
25.421480928995	-1.843207039854	0
[...]
CELL_DATA 1103
SCALARS _Attribute double 1
LOOKUP_TABLE default
0 1 2 3 4 5 6 7 8 9 10 11 12 13 14 15 16 17 18 19 20 21 22 23 24 25 26 27 28 29 30 31 32 33 34 35 36 37 38 39 40 41 42 43 44 45 46 47 48 49 50 51 52 53 54 55 56 57 58 59 60 61 62 63 64 65 66 67 68 69 70 71 72 73 74 75 76 77 78 79 80 81 82 83 84 85 86 87 88 89 90 91 92 93 94 95 96 97 98 99 100 101 102 103 104 105 106 107 108 109 110 111 112 113 114 115 116 117 118 119 120 121 122 123 124 125 126 127 128 129 130 131 132 133 134 135 136 137 138 139 140 141 142 143 144 145 146 147 148 149 150 151 152 153 154 155 156 157 158 159 160 161 162 163 164 165 166 167 168 169 170 171 172 173 174 175 176 177 178 179 180 181 182 183 184 185 186 187 188 189 190 191 192 193 194 195 196 197 198 199 200 201 202 203 204 205 206 207 208 209 210 211 212 213 214 215 216 217 218 219 220 221 222 223 224 225 226 227 228 229 230 231 232 233 234 235 236 237 238 239 240 241 242 243 244 245 246 247 248 249 250 251 252 253 254 255 256 257 258 259 260 261 262 263 264 265 266 267 268 269 270 271 272 273 274 275 276 277 278 279 280 281 282 283 284 285 286 287 288 289 290 291 292 293 294 295 296 297 298 299 300 301 302 303 304 305 306 307 308 309 310 311 312 313 314 315 316 317 318 319 320 321 322 323 324 325 326 327 328 329 330 331 332 333 334 335 336 337 338 339 340 341 342 343 344 345 346 347 348 349 350 351 352 353 354 355 356 357 358 359 360 361 362 363 364 365 366 367 368 369 370 371 372 373 374 375 376 377 378 379 380 381 382 383 384 385 386 387 388 389 390 391 392 393 394 395 396 397 398 399 400 401 402 403 404 405 406 407 408 409 410 411 412 413 414 415 416 417 418 419 420 421 422 423 424 425 426 427 428 429 430 431 432 433 434 435 436 437 438 439 440 441 442 443 444 445 446 447 448 449 450 451 452 453 454 455 456 457 458 459 460 461 462 463 464 465 466 467 468 469 470 471 472 473 474 475 476 477 478 479 480 481 482 483 484 485 486 487 488 489 490 491 492 493 494 495 496 497 498 499 500 501 502 503 504 505 506 507 508 509 510 511 512 513 514 515 516 517 518 519 520 521 522 523 524 525 526 527 528 529 530 531 532 533 534 535 536 537 538 539 540 541 542 543 544 545 546 547 548 549 550 551 552 553 554 555 556 557 558 559 560 561 562 563 564 565 566 567 568 569 570 571 572 573 574 575 576 577 578 579 580 581 582 583 584 585 586 587 588 589 590 591 592 593 594 595 596 597 598 599 600 601 602 603 604 605 606 607 608 609 610 611 612 613 614 615 616 617 618 619 620 621 622 623 624 625 626 627 628 629 630 631 632 633 634 635 636 637 638 639 640 641 642 643 644 645 646 647 648 649 650 651 652 653 654 655 656 657 658 659 660 661 662 663 664 665 666 667 668 669 670 671 672 673 674 675 676 677 678 679 680 681 682 683 684 685 686 687 688 689 690 691 692 693 694 695 696 697 698 699 700 701 702 703 704 705 706 707 708 709 710 711 712 713 714 715 716 717 718 719 720 721 722 723 724 725 726 727 728 729 730 731 732 733 734 735 736 737 738 739 740 741 742 743 744 745 746 747 748 749 750 751 752 753 754 755 756 757 758 759 760 761 762 763 764 765 766 767 768 769 770 771 772 773 774 775 776 777 778 779 780 781 782 783 784 785 786 787 788 789 790 791 792 793 794 795 796 797 798 799 800 801 802 803 804 805 806 807 808 809 810 811 812 813 814 815 816 817 818 819 820 821 822 823 824 825 826 827 828 829 830 831 832 833 834 835 836 837 838 839 840 841 842 843 844 845 846 847 848 849 850 851 852 853 854 855 856 857 858 859 860 861 862 863 864 865 866 867 868 869 870 871 872 873 874 875 876 877 878 879 880 881 882 883 884 885 886 887 888 889 890 891 892 893 894 895 896 897 898 899 900 901 902 903 904 905 906 907 908 909 910 911 912 913 914 915 916 917 918 919 920 921 922 923 924 925 926 927 928 929 930 931 932 933 934 935 936 937 938 939 940 941 942 943 944 945 946 947 948 949 950 951 952 953 954 955 956 957 958 959 960 961 962 963 964 965 966 967 968 969 970 971 972 973 974 975 976 977 978 979 980 981 982 983 984 985 986 987 988 989 990 991 992 993 994 995 996 997 998 999 1000 1001 1002 1003 1004 1005 1006 1007 1008 1009 1010 1011 1012 1013 1014 1015 1016 1017 1018 1019 1020 1021 1022 1023 1024 1025 1026 1027 1028 1029 1030 1031 1032 1033 1034 1035 1036 1037 1038 1039 1040 1041 1042 1043 1044 1045 1046 1047 1048 1049 1050 1051 1052 1053 1054 1055 1056 1057 1058 1059 1060 1061 1062 1063 1064 1065 1066 1067 1068 1069 1070 1071 1072 1073 1074 1075 1076 1077 1078 1079 1080 1081 1082 1083 1084 1085 1086 1087 1088 1089 1090 1091 1092 1093 1094 1095 1096 1097 1098 1099 1100 1101 1102 
SCALARS _Marker double 1
LOOKUP_TABLE default
0 1 2 3 4 5 6 7 8 9 10 11 12 13 14 15 16 17 18 19 20 21 22 23 24 25 26 27 28 29 30 31 32 33 34 35 36 37 38 39 40 41 42 43 44 45 46 47 48 49 50 51 52 53 54 55 56 57 58 59 60 61 62 63 64 65 66 67 68 69 70 71 72 73 74 75 76 77 78 79 80 81 82 83 84 85 86 87 88 89 90 91 92 93 94 95 96 97 98 99 100 101 102 103 104 105 106 107 108 109 110 111 112 113 114 115 116 117 118 119 120 121 122 123 124 125 126 127 128 129 130 131 132 133 134 135 136 137 138 139 140 141 142 143 144 145 146 147 148 149 150 151 152 153 154 155 156 157 158 159 160 161 162 163 164 165 166 167 168 169 170 171 172 173 174 175 176 177 178 179 180 181 182 183 184 185 186 187 188 189 190 191 192 193 194 195 196 197 198 199 200 201 202 203 204 205 206 207 208 209 210 211 212 213 214 215 216 217 218 219 220 221 222 223 224 225 226 227 228 229 230 231 232 233 234 235 236 237 238 239 240 241 242 243 244 245 246 247 248 249 250 251 252 253 254 255 256 257 258 259 260 261 262 263 264 265 266 267 268 269 270 271 272 273 274 275 276 277 278 279 280 281 282 283 284 285 286 287 288 289 290 291 292 293 294 295 296 297 298 299 300 301 302 303 304 305 306 307 308 309 310 311 312 313 314 315 316 317 318 319 320 321 322 323 324 325 326 327 328 329 330 331 332 333 334 335 336 337 338 339 340 341 342 343 344 345 346 347 348 349 350 351 352 353 354 355 356 357 358 359 360 361 362 363 364 365 366 367 368 369 370 371 372 373 374 375 376 377 378 379 380 381 382 383 384 385 386 387 388 389 390 391 392 393 394 395 396 397 398 399 400 401 402 403 404 405 406 407 408 409 410 411 412 413 414 415 416 417 418 419 420 421 422 423 424 425 426 427 428 429 430 431 432 433 434 435 436 437 438 439 440 441 442 443 444 445 446 447 448 449 450 451 452 453 454 455 456 457 458 459 460 461 462 463 464 465 466 467 468 469 470 471 472 473 474 475 476 477 478 479 480 481 482 483 484 485 486 487 488 489 490 491 492 493 494 495 496 497 498 499 500 501 502 503 504 505 506 507 508 509 510 511 512 513 514 515 516 517 518 519 520 521 522 523 524 525 526 527 528 529 530 531 532 533 534 535 536 537 538 539 540 541 542 543 544 545 546 547 548 549 550 551 552 553 554 555 556 557 558 559 560 561 562 563 564 565 566 567 568 569 570 571 572 573 574 575 576 577 578 579 580 581 582 583 584 585 586 587 588 589 590 591 592 593 594 595 596 597 598 599 600 601 602 603 604 605 606 607 608 609 610 611 612 613 614 615 616 617 618 619 620 621 622 623 624 625 626 627 628 629 630 631 632 633 634 635 636 637 638 639 640 641 642 643 644 645 646 647 648 649 650 651 652 653 654 655 656 657 658 659 660 661 662 663 664 665 666 667 668 669 670 671 672 673 674 675 676 677 678 679 680 681 682 683 684 685 686 687 688 689 690 691 692 693 694 695 696 697 698 699 700 701 702 703 704 705 706 707 708 709 710 711 712 713 714 715 716 717 718 719 720 721 722 723 724 725 726 727 728 729 730 731 732 733 734 735 736 737 738 739 740 741 742 743 744 745 746 747 748 749 750 751 752 753 754 755 756 757 758 759 760 761 762 763 764 765 766 767 768 769 770 771 772 773 774 775 776 777 778 779 780 781 782 783 784 785 786 787 788 789 790 791 792 793 794 795 796 797 798 799 800 801 802 803 804 805 806 807 808 809 810 811 812 813 814 815 816 817 818 819 820 821 822 823 824 825 826 827 828 829 830 831 832 833 834 835 836 837 838 839 840 841 842 843 844 845 846 847 848 849 850 851 852 853 854 855 856 857 858 859 860 861 862 863 864 865 866 867 868 869 870 871 872 873 874 875 876 877 878 879 880 881 882 883 884 885 886 887 888 889 890 891 892 893 894 895 896 897 898 899 900 901 902 903 904 905 906 907 908 909 910 911 912 913 914 915 916 917 918 919 920 921 922 923 924 925 926 927 928 929 930 931 932 933 934 935 936 937 938 939 940 941 942 943 944 945 946 947 948 949 950 951 952 953 954 955 956 957 958 959 960 961 962 963 964 965 966 967 968 969 970 971 972 973 974 975 976 977 978 979 980 981 982 983 984 985 986 987 988 989 990 991 992 993 994 995 996 997 998 999 1000 1001 1002 1003 1004 1005 1006 1007 1008 1009 1010 1011 1012 1013 1014 1015 1016 1017 1018 1019 1020 1021 1022 1023 1024 1025 1026 1027 1028 1029 1030 1031 1032 1033 1034 1035 1036 1037 1038 1039 1040 1041 1042 1043 1044 1045 1046 1047 1048 1049 1050 1051 1052 1053 1054 1055 1056 1057 1058 1059 1060 1061 1062 1063 1064 1065 1066 1067 1068 1069 1070 1071 1072 1073 1074 1075 1076 1077 1078 1079 1080 1081 1082 1083 1084 1085 1086 1087 1088 1089 1090 1091 1092 1093 1094 1095 1096 1097 1098 1099 1100 1101 1102 
SCALARS res double 1
LOOKUP_TABLE default
4.9418448804626 11.541875991852 12.208432791521 7.9067818190801 7.0885561587879 9.3124268478157 8.2653738064096 10.903152556777 7.886004173392 7.8735882729989 10.848280358774 8.0600303881637 10.26944639651 9.1710183046807 7.7048762797556 10.483945011835 7.749156597636 6.8153296990095 9.4161557194638 10.56896669041 7.8772668465148 9.4060759811978 7.396273375298 9.1125867336664 9.1183924203792 8.0335267085665 10.320207680212 7.4272810433082 10.583300041804 3.4349298908267 10.240573073526 11.551453745682 4.4475016336843 10.260226309272 9.2363008182671 9.7727019233597 10.821987684013 9.4901387057557 9.3671676614042 12.029326663751 9.5481202310337 9.753472654114 11.17537153409 9.2511607314283 9.2806063209186 10.223105539323 9.0130820137858 9.3386201888151 8.660169166626 5.5777017680617 10.143279715818 9.3737066657567 9.1279375290822 10.202353872483 9.1805061650297 9.2435638912302 9.4529891326758 8.7494346978686 10.112471794087 8.2788908787389 10.310589123076 8.4914467396627 11.423664640397 10.280455779244 9.9588316814465 9.7436262172836 9.9862855397098 4.4342730671089 14.879883249676 9.8611856887625 9.455058237336 10.569045706398 10.068435013053 11.485732106126 11.177989991614 9.4823423062188 8.8382504179786 10.18282185622 9.8406458823164 9.8920046849365 10.586654335473 10.46078089043 9.3195731800508 8.9241247833628 10.218990179375 10.113727883102 9.6873781798995 8.7526135538331 10.080675090983 11.164600099856 10.67529955167 10.650309060815 9.3112739590294 10.432313708078 9.6177469482261 10.434994822144 10.611549547525 10.249196544111 10.447731312631 9.9155502755486 10.410005686703 10.453729610379 10.857733674524 10.395925550242 11.635118202089 11.171631308024 9.584723762182 9.6511532037386 11.573232975873 10.176413721025 11.13382788197 10.206835363443 11.329829762303 10.096002471505 10.55189006534 10.688837865488 12.036275717708 11.186081656595 11.233679725154 10.100439072823 10.383575242407 12.649114041379 10.378958115189 10.709788085399 9.6785323790793 10.98356327012 10.20938789428 10.354115715789 10.585398063158 10.088458462679 11.210349839584 9.5947125959578 10.698976174111 9.5305265217192 9.0524253267634 14.125361091754 10.034979091427 9.3347464231776 10.812208648881 8.3388687398607 8.7618658205058 9.5378378953004 9.0509623806611 10.404341973198 12.829609633359 9.3560396675688 9.8563075167124 9.4818594222603 8.8732771343865 11.521249875966 11.508879064597 8.7200115296436 11.009598484932 7.32024343977 8.3398888248029 10.321469605717 8.0379436866748 10.544469846039 7.3642077754008 9.5561250474379 8.5962239069427 11.158839662972 9.2014068958592 7.1607564385112 10.563000006764 8.4295896189754 7.7457081251616 10.444465380024 12.273892326662 8.0869045177623 9.7268345939361 7.9689080484178 7.1636876210813 7.9783627114541 10.383551533482 9.8582442403569 9.8827949463545 7.7309997688165 10.395413436621 8.5841424858012 8.0186853571255 10.675667065565 9.8253212067893 5.302756949601 10.278493711609 8.3458479060108 4.9053779421761 10.426007869291 7.9262482600201 9.0810302994598 7.2224671843599 8.8812688809974 9.7741863257053 8.9003770543896 10.374463737331 9.7487523804723 9.8200475741878 8.4708434351871 9.2720243417985 9.9269428468167 9.5282281769558 8.9668374165658 9.7086031407247 9.7440802187582 9.3370196726811 9.8665748737107 8.882663435938 10.626689326587 11.229366918213 11.399974681038 11.086507059092 10.25996528327 10.003617856368 10.356229348775 10.735675094504 11.67588049464 10.935055495173 12.758610498043 9.210800332867 10.540884259018 11.367205916807 9.6572534289423 11.462082621537 10.708734519098 10.678564898432 9.6993162998686 9.749846110474 10.744794479996 10.335433772635 12.389262243361 11.091383328106 10.486851113534 9.7144073529194 9.1937370072938 10.154968261644 9.2562101753529 9.5261870429488 9.009751369984 10.448574918924 8.7818610360525 9.7051867689972 9.8292287079524 10.265600364191 8.6716736703974 9.7634253977268 10.15989506363 8.8975716723791 9.9444886336304 9.5580378120931 11.563896471939 11.429064561555 11.001625770046 9.7717557561856 9.1048569414199 8.5848082377001 9.3923458210744 9.745856800131 9.8629908169073 10.936584290207 11.364350112596 10.450816698633 6.7935109410331 13.785944904424 8.4680403380117 8.5656558442202 12.247158632862 5.6398108589008 7.156761362108 8.0076698807005 7.6556217065466 8.9039744354297 3.6869515233621 3.9183766829059 9.0382777935556 9.8644411878271 6.1332964350458 9.7019600913116 4.7409597351355 9.9626295445532 6.4955985606697 8.2195168137201 7.4109388305087 8.3359178982418 4.5423314638961 3.0423689786993 8.8558609332298 7.070683797187 8.7654262048634 8.4273396407967 6.4122808094434 8.0769230567729 8.9856604874148 6.1738277686307 5.0423629766508 7.9274212553683 4.2216225373328 7.0405180542278 6.7173414844811 9.913006174152 6.4065415537753 8.8635699063006 9.8108902764001 7.1124823852751 9.971943853699 8.0492644000443 5.6858828031937 10.047620947477 8.1781019672334 10.068947664205 9.2623788734361 8.2997095319148 3.0038083485769 8.8849721347164 4.5149059950836 9.0314046083663 8.8452750645881 6.93168122969 4.40107364439 4.3045931806481 4.8129423178275 9.190992042872 5.8477507261029 8.5797283768068 4.7952598367275 7.807013749283 6.214870143814 4.3505919946585 6.2172706382149 8.1749355695232 8.4796564677644 6.4804484427591 6.9648791579178 4.6144615123246 7.6137361967764 5.5009163383423 6.9756972429635 9.3945494155607 5.1313278685334 9.5045717962984 8.4676266163866 5.3897725962088 9.718452868312 7.578712449524 5.2419294434282 8.9316703322264 6.4091141521132 8.5929239020626 7.8392428313949 4.1370662394871 4.6861998016477 2.7626645604904 6.8244815083478 5.0440861721676 6.0385681367982 8.1705401852764 6.8690354511286 5.007874155751 6.4851944351235 7.5544321002955 9.1343405553044 4.9135742647677 9.78415911097 5.7975840183535 4.9281986550073 8.2734580169337 4.5201691832965 7.6152413463608 9.2960466006305 6.1166779263518 5.9280732107471 6.5560317381708 3.1242486420477 3.0897443697535 7.1054098880485 8.4433418345356 8.2450334834781 4.4873625257114 3.6399039104767 5.8251096546091 8.1158763937298 5.3375596797561 4.1260026316332 8.3016305595328 4.0616199020962 7.6931275466563 5.1533131885245 7.0737807845636 4.6599315034445 5.260796396309 8.4427306969418 5.1455024412763 4.7336866008103 7.7145748541696 5.6412747374172 7.5007892804287 6.1729462608704 3.5324165424018 7.6779198973802 4.6960411412626 2.7420678968696 3.5999874485393 4.7177160872735 4.4439563399988 6.3542260730408 7.2925355531455 7.6450017632717 8.8201814075578 8.1327242015242 5.5850912960711 8.8255638138769 4.5775298557397 3.6965084486792 4.7842630253745 3.9879282951951 2.7876156719503 5.1729514793328 4.8658983649158 5.8631031784196 3.684691401675 5.0279544159788 6.1904722196557 4.1660382705219 4.110012855331 7.77828646655 4.3849876575987 4.1958554485035 3.6947272978397 3.2397652121897 4.7409073981493 8.0931330416091 5.2003253980749 3.3728883720188 3.0781020963194 6.8915135218419 3.8858559504872 6.5676920998979 4.0321619661241 3.7742207021257 5.1536329626041 5.9165580103559 7.502230895627 6.9332243782786 5.1425014708851 3.522674777039 5.2662410745377 4.3170430566951 7.7749574074375 5.6945630340297 5.7822706435427 3.077375068227 5.7812578300583 3.8220415684261 4.855247704421 4.900534227833 7.2463904708525 4.1557076008845 3.4618329240973 3.1122001238376 6.9566857715503 4.1552974140531 2.7445043920581 3.0999742529486 6.8974262163702 3.8233135206773 3.1502499296096 3.8025092014163 2.6993602631275 2.6628941464893 3.8388514534341 2.8624085855101 3.2682186928464 4.0876978693041 3.3703115804523 3.9238923474653 2.9546653902269 4.0953404250066 3.3962085222855 4.1262972857667 3.5830726696128 5.5426430907545 2.9521669231332 4.1660149891147 3.7602273665323 3.8413770960848 3.2188691578725 3.9093239127827 6.1807375235184 3.8807038288869 3.8376535873113 2.9899949912021 3.1854000803518 4.1385222084115 3.924591838634 4.9850701449043 3.3492282571023 3.372159353517 3.7780841146968 2.6804818001271 3.0386988658158 4.8802643073177 4.7682646569296 3.7604809665249 3.224326293036 4.3741411498004 3.5820175670836 3.0126067253501 3.8383204268704 4.0635788880713 3.7899998049003 3.0701010255127 4.1581234172125 3.0699399459791 4.8486785011126 3.8651691728737 3.553956611416 2.8346710392874 3.7277430084262 3.0341129466164 2.9308116826953 2.8268975644183 3.0435750200156 3.3087196786183 4.1873388383509 2.7638560301844 3.3541036470277 3.0696944601847 3.8994201552846 2.9434016396946 2.8134811938008 3.341788969981 3.1209937542505 3.8973568335505 3.2990303507562 3.0740006425136 2.7554024993547 4.2125047369114 3.3615338925341 2.6350886276387 3.2491519822504 2.9999126136112 2.8362455589743 3.6048906579816 3.0330350754852 2.820856937192 3.2012037292526 3.1639202237814 3.3865941251482 2.9035052301508 3.0685399341171 2.941473123123 2.7190099709236 2.8100467825782 3.5447397618004 2.7029000991948 3.8169964126887 2.9381757219292 2.874138438204 2.773438214612 2.8372941925953 2.943623008249 2.7398708037346 2.629206241478 2.8610402784555 3.076452738638 3.6909440951427 2.693836228438 2.8499055237626 2.9628160339106 3.0523856330122 2.7775336323119 7.3819276322169 4.3234613694313 3.1681522062419 2.8620828559094 3.077154799228 4.0853550671096 4.6953572547773 3.0936844876919 2.8155342198428 2.86056080307 15.859491151429 8.359630301294 8.7490752693634 10.646940333213 2.7558058035566 3.1273061272662 2.806238628553 3.1317063248626 3.008659946427 2.8590295143545 2.7759046871558 2.9232370281354 2.8147375020138 2.5711213695261 2.774991798191 2.6960864618355 3.0812548009355 3.4030840965115 3.151648637939 3.4997593267591 4.1371445887644 5.4759042419967 2.6758896951915 2.7575313899323 2.8668895245264 3.1086209071938 2.8144416631158 2.7620181969443 2.8105480255882 2.6160047715748 3.1070554089593 3.1479217891979 3.1463442900287 3.1879188930388 2.8840410748455 3.0527309578091 2.9619358774731 3.8591300979769 2.9376997743807 3.1492937873088 3.5075563196958 3.1837214503271 3.3792378479034 2.918077371323 3.3815439617343 2.8752742044956 2.8720981507996 2.7404203008175 2.7523983458135 4.0812694247904 2.9109466608527 2.7280156738262 3.4207754618069 2.8356837563829 2.8714847536674 2.808793329578 3.351458872218 3.0194474279613 4.3012436823573 2.7831144280896 3.1971761337147 4.1256852640586 3.1626552542269 2.9862629576466 3.216396264 3.0645300567905 3.4436392677894 3.5157884555494 3.5168200767051 3.4496351677483 3.3662999262849 3.9479836943021 3.2196300244401 3.1543472872297 3.104244262484 3.3957443996055 3.1427586131305 2.9677722580674 3.4757341073788 2.8105534941469 3.3564874919088 3.6446594944642 2.7511592753898 2.6201957828196 3.5556356413344 2.9440180287485 3.8810182542452 4.1512517913409 3.8312978795777 2.803752881542 3.9845263368122 3.9746474992819 3.2586287306 3.0208903366343 2.9160643357709 3.5428006877945 4.5479865803452 7.073024061359 5.9824497507076 2.8984901029536 3.0007554223436 2.7893128473323 3.8154367754165 2.7740898850089 4.2910130790275 3.2207610052848 4.3518283522065 3.3931271413778 2.8328348410372 2.7764013927218 2.8415057402479 2.9052486939341 3.0803841017803 3.1726773384662 3.9176236347951 3.40