# vtk DataFile Version 3.0
d-2__ created by libgimli-v1.0.12
ASCII
DATASET UNSTRUCTURED_GRID
POINTS 643 double
8.26734535398	-0.841719949509	0
7.557943954382	-1.0966403646	0
8.065145117233	-1.394448781353	0
0.491688001619	-0.337793246669	0
0.5	0	0
0.25	0	0
-0.432182426902	-0.493120374568	0
0.035486447755	-0.291927345908	0
-0.25	0	0
0.153594787174	-0.921312623909	0
2.669223842975	-0.926052094998	0
2.476257670651	-0.320891106913	0
2.1867633849	-0.693062836777	0
1.517856783727	-0.323951624719	0
1.5	0	0
1.25	0	0
0.743184927557	-0.808414876679	0
1.009834562583	-0.343965223165	0
2.5	0	0
2.25	0	0
1.801584669225	-0.69579324563	0
1.997454347846	-0.290347050765	0
1.316455292902	-0.938946651637	0
2	0	0
1.75	0	0
1	0	0
0.75	0	0
3.495460573424	-0.342844737767	0
3.5	0	0
3.25	0	0
2.980648500035	-0.338031948282	0
4.526341261963	-0.349167797562	0
4.5	0	0
4.25	0	0
3.223858072945	-0.7774363501	0
3.755023243159	-0.939083487314	0
4.008928045252	-0.345899641032	0
4	0	0
3.75	0	0
5.542984115479	-0.309103645511	0
5.5	0	0
5.25	0	0
4.285911476752	-0.790207510923	0
6.536273054681	-0.298521592857	0
6.5	0	0
6.25	0	0
5.041105022532	-0.340150743513	0
4.848712717906	-0.967253068915	0
5.369990474036	-0.754296117125	0
5.85426786975	-0.772771118225	0
6.035799329289	-0.294841057559	0
7.037197776941	-0.286172449215	0
7	0	0
6.75	0	0
6	0	0
5.75	0	0
5	0	0
4.75	0	0
30.321222850838	-1.250743665768	0
30.345288892899	-1.809205816926	0
31.006435316593	-1.600112850834	0
3	0	0
2.75	0	0
8.004166828714	-0.287089623282	0
8	0	0
7.75	0	0
14.06077532018	-1.674701779475	0
14.068394957674	-1.065639094428	0
13.50087088524	-1.451347896445	0
8.989371480441	-0.254459471254	0
9	0	0
8.75	0	0
7.737981946628	-0.620970536872	0
7.517478704143	-0.259260382769	0
7.342890885092	-0.618127222524	0
8.506115467486	-0.28498362459	0
8.5	0	0
8.25	0	0
9.972377913884	-0.303280168027	0
10	0	0
9.75	0	0
8.781590037619	-0.609083964025	0
9.170298519708	-0.603261850079	0
11.010616273613	-0.310335601759	0
11	0	0
10.75	0	0
9.467245824481	-0.281771518621	0
9.638350980758	-0.809297330053	0
10.494798616198	-0.317167826673	0
10.5	0	0
10.25	0	0
9.5	0	0
9.25	0	0
11.99548212361	-0.309500183949	0
12	0	0
11.75	0	0
10.206054535148	-0.712768117549	0
13.03460634048	-0.302462591325	0
13	0	0
12.75	0	0
12.243081906438	-0.88740363201	0
12.511675723632	-0.315952663428	0
12.873938957132	-1.229885835596	0
13.381980490953	-0.807307965026	0
12.5	0	0
12.25	0	0
14.016103004852	-0.251877449649	0
14	0	0
13.75	0	0
12.809010661694	-0.709157563469	0
14.998374190628	-0.288681607244	0
15	0	0
14.75	0	0
14.230107959312	-0.599199324358	0
13.847317041418	-0.601695816056	0
14.495432809405	-0.277065553896	0
15.509096591935	-0.285735397848	0
15.5	0	0
15.25	0	0
14.723264531615	-0.79490366125	0
14.5	0	0
14.25	0	0
13.539963790964	-0.281059570821	0
13.5	0	0
13.25	0	0
11.502774742404	-0.282639512148	0
11.5	0	0
11.25	0	0
7.5	0	0
7.25	0	0
15.260345797021	-0.65806614554	0
0	0	0
-1	-2	0
-0.042808875054	-1.779948148129	0
-0.464288434573	-1.23884494359	0
-0.5	0	0
16.008890205367	-0.27187038273	0
15.75	0	0
16.487111265512	-0.253164162516	0
16.5	0	0
16.25	0	0
16.658857375704	-0.612606894893	0
17.166748655408	-0.923614955059	0
16.971282188817	-0.300727306564	0
17.485042758216	-0.311659713203	0
17.5	0	0
17.25	0	0
16.269832737757	-0.583091814024	0
17	0	0
16.75	0	0
18.49026232633	-0.30761079753	0
18.5	0	0
18.25	0	0
17.990973960263	-0.280503270576	0
17.765030202104	-0.673170751362	0
19.488415836336	-0.265561763143	0
19.5	0	0
19.25	0	0
19.672482277747	-0.625608449574	0
20.144745640562	-0.818666195075	0
19.967674581038	-0.28772849064	0
18.195391882481	-0.66829648108	0
19.000221976857	-0.302336730294	0
19	0	0
18.75	0	0
18	0	0
17.75	0	0
20.467369365388	-0.302331599617	0
20.5	0	0
20.25	0	0
21.4785350505	-0.319641206921	0
21.5	0	0
21.25	0	0
20.97363594939	-0.310926487048	0
20.684983056824	-0.697014654756	0
21	0	0
20.75	0	0
22.495507319955	-0.334550312303	0
22.5	0	0
22.25	0	0
21.705711573406	-0.738928861364	0
21.986091654451	-0.329873887928	0
23.513400240183	-0.333582717239	0
23.5	0	0
23.25	0	0
22.223160002632	-0.913170727266	0
22.753552832292	-0.760077269692	0
23.006254224637	-0.335393901189	0
24.019362482387	-0.330216634218	0
24	0	0
23.75	0	0
23	0	0
22.75	0	0
22	0	0
21.75	0	0
19.277755064458	-0.641405507175	0
20	0	0
19.75	0	0
25.017008958257	-0.298740202969	0
25	0	0
24.75	0	0
26.294519420715	-0.954603295664	0
26.009126883683	-0.328155329349	0
25.74316311167	-0.71003993739	0
26	0	0
25.75	0	0
25.275588664844	-0.753306564951	0
25.506391988699	-0.299223139694	0
24.312668112034	-0.902398587862	0
24.814164983529	-0.71286124284	0
24.523237956951	-0.321295584913	0
25.5	0	0
25.25	0	0
32	0	0
31.75	0	0
31.906807038705	-0.484082984508	0
27.025381053085	-0.308376024993	0
27	0	0
26.75	0	0
26.519754232125	-0.328928233886	0
26.808984815661	-0.707505889629	0
23.786916547457	-0.749439862703	0
26.5	0	0
26.25	0	0
27.995583137268	-0.268915195384	0
28	0	0
27.75	0	0
28.977466419157	-0.324073222805	0
29	0	0
28.75	0	0
28.47234092997	-0.303116830069	0
28.65479240249	-0.878731923869	0
27.797570234091	-0.637194100842	0
27.520953625254	-0.292024780457	0
28.5	0	0
28.25	0	0
30.003281486075	-0.325886230793	0
30	0	0
29.75	0	0
30.736713929862	-0.836307538783	0
30.264874677952	-0.727220735468	0
31.002297044571	-0.317821134496	0
31	0	0
30.75	0	0
29.219117731567	-0.754143124389	0
29.494586815324	-0.330347838693	0
31.820346353958	-1.316427505899	0
31.321646213961	-0.804046785347	0
31.455231000826	-0.267750327997	0
31.5	0	0
31.25	0	0
30.501239522701	-0.315524231541	0
30.5	0	0
30.25	0	0
29.5	0	0
29.25	0	0
27.5	0	0
27.25	0	0
24.5	0	0
24.25	0	0
16	0	0
-1	0	0
-1	-1	0
32.5	0	0
1.989666019305	-1.233734400388	0
6.863754175933	-0.824760527774	0
3.219157999931	-1.341882318935	0
2.609034975292	-1.780281454181	0
3.29676229473	-2.00355285588	0
4.864370364313	-1.805044555895	0
4.290753572073	-1.349513103168	0
11.711256974917	-0.677986918055	0
11.302372821581	-0.678772247432	0
15.795323335384	-0.776675643246	0
15.275063298912	-1.140326480366	0
15.843408571902	-1.488043703819	0
17.9855606163	-1.178318938268	0
18.519844973003	-1.499201894838	0
18.744088688453	-0.899454190765	0
19.482820991508	-1.112383283552	0
28.177403141442	-0.647797675257	0
1.042908311093	-1.995036835291	0
1.409337908843	-1.669083744004	0
0.744628344325	-1.50103966239	0
29.760589588235	-0.906359360491	0
6.317299319825	-0.681477455412	0
10.77453899223	-0.891942758081	0
10.150119276387	-1.240589870178	0
11.512831015657	-1.229335977218	0
14.733873794355	-1.52323196771	0
16.3981706498	-0.997883271292	0
16.92453690772	-2.370130218806	0
17.647979543867	-2.274523661384	0
17.412115486799	-1.703808859682	0
21.184274197653	-0.855379659538	0
20.654528462103	-1.196144543539	0
21.135507163552	-1.44482019993	0
23.807803873005	-1.261748169606	0
24.296200924496	-1.646058008722	0
20.081622434665	-1.504310739189	0
28.561417297097	-1.638459712791	0
27.965806423224	-1.148296715066	0
29.206906025928	-1.329542097592	0
27.327473354266	-0.82695513541	0
6.958195298369	-1.572330828935	0
5.563184183931	-1.38038969662	0
6.296638755016	-1.214220036681	0
8.974584635086	-1.059166964677	0
9.527252747372	-1.458958509107	0
-0.2809833827	-2.622318296888	0
0.590667364967	-2.397673927046	0
10.74510890623	-1.749609335817	0
12.288001931267	-1.73283426955	0
15.292003662726	-1.590420255381	0
18.093284297521	-1.875425632569	0
20.050976081265	-2.2270498272	0
19.460384743682	-1.815696566975	0
19.368403406356	-2.502605588276	0
18.997105888679	-1.477994829177	0
18.776720184298	-2.060100092493	0
21.656582750327	-1.274584483279	0
23.282011078439	-0.915591197874	0
22.761356579159	-1.298852489967	0
23.34678798383	-1.659721996684	0
22.204339317602	-1.647781307969	0
24.942873357023	-1.283153220798	0
25.630462591071	-1.209919637855	0
26.877519822345	-1.115961664749	0
27.294693294774	-1.571825942865	0
29.80996906135	-1.621992788555	0
5.711773118045	-2.710158331741	0
6.411306214732	-2.928099591179	0
6.223349671972	-2.050265334154	0
1.935868556723	-1.935043976865	0
8.510591054554	-1.373682247669	0
8.319346161929	-1.855602552755	0
8.926321420711	-1.714553122278	0
10.009278408364	-1.816527074448	0
12.783062231891	-3.101165449426	0
11.99792406261	-2.644830434748	0
12.054546590196	-3.590444625623	0
3.761760703037	-1.626801709073	0
13.020742034585	-1.783508693958	0
13.598996521631	-2.139925671762	0
14.400044801647	-2.177579792341	0
16.653626605559	-1.5986739338	0
15.315056685716	-2.207283148473	0
20.695082305892	-1.852110113998	0
21.486804111202	-2.042000890155	0
29.23220101267	-2.173164737804	0
28.359416794109	-2.461733423721	0
28.99425766728	-3.019383956312	0
27.946615202612	-1.834252831784	0
7.670187010487	-1.800238924638	0
4.22933903001	-1.968552349685	0
4.111232162359	-2.525907903317	0
3.502553110553	-2.672774184437	0
4.01534634172	-3.112789034967	0
8.319570796625	-2.937494367696	0
8.907491246516	-3.165150980522	0
8.760805951922	-2.420510433375	0
14.133792927873	-3.986472178562	0
13.576453470301	-3.413257725877	0
13.466538902273	-4.095985910306	0
11.52557900515	-1.984638406537	0
9.405248365978	-2.72670671853	0
11.407516095864	-3.175924087333	0
11.084373764624	-2.558276980669	0
10.671170565718	-3.266729840161	0
2.886981980761	-3.165256283392	0
2.24552423078	-2.583850425343	0
2.221346184336	-3.302578788735	0
18.21052794881	-2.522965957242	0
22.759847689925	-1.889188780162	0
20.760816186432	-2.697070432089	0
23.824237402438	-1.687581009936	0
29.72816072835	-4.626642595486	0
29.638952651221	-5.438491536962	0
30.25473557946	-5.177263462684	0
27.548695467423	-2.342077485835	0
26.105600846311	-1.710588290897	0
26.66138610647	-1.513771956363	0
29.518059649207	-3.702922929041	0
29.700853704493	-2.87880889714	0
7.982884842679	-2.42712138484	0
2.908020132939	-2.440739000472	0
7.137370352975	-2.445175711052	0
9.734060627796	-3.4142460353	0
16.171339323802	-2.093490739872	0
26.21875	-6	0
27.265625	-6	0
26.689747789663	-5.271883038557	0
23.147717905815	-2.375630991782	0
23.847367574527	-2.177560004341	0
24.851294189958	-1.901857953023	0
27.82557187722	-3.035064435451	0
25.421480928995	-1.843207039854	0
[...]
CELL_DATA 1103
SCALARS _Attribute double 1
LOOKUP_TABLE default
0 1 2 3 4 5 6 7 8 9 10 11 12 13 14 15 16 17 18 19 20 21 22 23 24 25 26 27 28 29 30 31 32 33 34 35 36 37 38 39 40 41 42 43 44 45 46 47 48 49 50 51 52 53 54 55 56 57 58 59 60 61 62 63 64 65 66 67 68 69 70 71 72 73 74 75 76 77 78 79 80 81 82 83 84 85 86 87 88 89 90 91 92 93 94 95 96 97 98 99 100 101 102 103 104 105 106 107 108 109 110 111 112 113 114 115 116 117 118 119 120 121 122 123 124 125 126 127 128 129 130 131 132 133 134 135 136 137 138 139 140 141 142 143 144 145 146 147 148 149 150 151 152 153 154 155 156 157 158 159 160 161 162 163 164 165 166 167 168 169 170 171 172 173 174 175 176 177 178 179 180 181 182 183 184 185 186 187 188 189 190 191 192 193 194 195 196 197 198 199 200 201 202 203 204 205 206 207 208 209 210 211 212 213 214 215 216 217 218 219 220 221 222 223 224 225 226 227 228 229 230 231 232 233 234 235 236 237 238 239 240 241 242 243 244 245 246 247 248 249 250 251 252 253 254 255 256 257 258 259 260 261 262 263 264 265 266 267 268 269 270 271 272 273 274 275 276 277 278 279 280 281 282 283 284 285 286 287 288 289 290 291 292 293 294 295 296 297 298 299 300 301 302 303 304 305 306 307 308 309 310 311 312 313 314 315 316 317 318 319 320 321 322 323 324 325 326 327 328 329 330 331 332 333 334 335 336 337 338 339 340 341 342 343 344 345 346 347 348 349 350 351 352 353 354 355 356 357 358 359 360 361 362 363 364 365 366 367 368 369 370 371 372 373 374 375 376 377 378 379 380 381 382 383 384 385 386 387 388 389 390 391 392 393 394 395 396 397 398 399 400 401 402 403 404 405 406 407 408 409 410 411 412 413 414 415 416 417 418 419 420 421 422 423 424 425 426 427 428 429 430 431 432 433 434 435 436 437 438 439 440 441 442 443 444 445 446 447 448 449 450 451 452 453 454 455 456 457 458 459 460 461 462 463 464 465 466 467 468 469 470 471 472 473 474 475 476 477 478 479 480 481 482 483 484 485 486 487 488 489 490 491 492 493 494 495 496 497 498 499 500 501 502 503 504 505 506 507 508 509 510 511 512 513 514 515 516 517 518 519 520 521 522 523 524 525 526 527 528 529 530 531 532 533 534 535 536 537 538 539 540 541 542 543 544 545 546 547 548 549 550 551 552 553 554 555 556 557 558 559 560 561 562 563 564 565 566 567 568 569 570 571 572 573 574 575 576 577 578 579 580 581 582 583 584 585 586 587 588 589 590 591 592 593 594 595 596 597 598 599 600 601 602 603 604 605 606 607 608 609 610 611 612 613 614 615 616 617 618 619 620 621 622 623 624 625 626 627 628 629 630 631 632 633 634 635 636 637 638 639 640 641 642 643 644 645 646 647 648 649 650 651 652 653 654 655 656 657 658 659 660 661 662 663 664 665 666 667 668 669 670 671 672 673 674 675 676 677 678 679 680 681 682 683 684 685 686 687 688 689 690 691 692 693 694 695 696 697 698 699 700 701 702 703 704 705 706 707 708 709 710 711 712 713 714 715 716 717 718 719 720 721 722 723 724 725 726 727 728 729 730 731 732 733 734 735 736 737 738 739 740 741 742 743 744 745 746 747 748 749 750 751 752 753 754 755 756 757 758 759 760 761 762 763 764 765 766 767 768 769 770 771 772 773 774 775 776 777 778 779 780 781 782 783 784 785 786 787 788 789 790 791 792 793 794 795 796 797 798 799 800 801 802 803 804 805 806 807 808 809 810 811 812 813 814 815 816 817 818 819 820 821 822 823 824 825 826 827 828 829 830 831 832 833 834 835 836 837 838 839 840 841 842 843 844 845 846 847 848 849 850 851 852 853 854 855 856 857 858 859 860 861 862 863 864 865 866 867 868 869 870 871 872 873 874 875 876 877 878 879 880 881 882 883 884 885 886 887 888 889 890 891 892 893 894 895 896 897 898 899 900 901 902 903 904 905 906 907 908 909 910 911 912 913 914 915 916 917 918 919 920 921 922 923 924 925 926 927 928 929 930 931 932 933 934 935 936 937 938 939 940 941 942 943 944 945 946 947 948 949 950 951 952 953 954 955 956 957 958 959 960 961 962 963 964 965 966 967 968 969 970 971 972 973 974 975 976 977 978 979 980 981 982 983 984 985 986 987 988 989 990 991 992 993 994 995 996 997 998 999 1000 1001 1002 1003 1004 1005 1006 1007 1008 1009 1010 1011 1012 1013 1014 1015 1016 1017 1018 1019 1020 1021 1022 1023 1024 1025 1026 1027 1028 1029 1030 1031 1032 1033 1034 1035 1036 1037 1038 1039 1040 1041 1042 1043 1044 1045 1046 1047 1048 1049 1050 1051 1052 1053 1054 1055 1056 1057 1058 1059 1060 1061 1062 1063 1064 1065 1066 1067 1068 1069 1070 1071 1072 1073 1074 1075 1076 1077 1078 1079 1080 1081 1082 1083 1084 1085 1086 1087 1088 1089 1090 1091 1092 1093 1094 1095 1096 1097 1098 1099 1100 1101 1102 
SCALARS _Marker double 1
LOOKUP_TABLE default
0 1 2 3 4 5 6 7 8 9 10 11 12 13 14 15 16 17 18 19 20 21 22 23 24 25 26 27 28 29 30 31 32 33 34 35 36 37 38 39 40 41 42 43 44 45 46 47 48 49 50 51 52 53 54 55 56 57 58 59 60 61 62 63 64 65 66 67 68 69 70 71 72 73 74 75 76 77 78 79 80 81 82 83 84 85 86 87 88 89 90 91 92 93 94 95 96 97 98 99 100 101 102 103 104 105 106 107 108 109 110 111 112 113 114 115 116 117 118 119 120 121 122 123 124 125 126 127 128 129 130 131 132 133 134 135 136 137 138 139 140 141 142 143 144 145 146 147 148 149 150 151 152 153 154 155 156 157 158 159 160 161 162 163 164 165 166 167 168 169 170 171 172 173 174 175 176 177 178 179 180 181 182 183 184 185 186 187 188 189 190 191 192 193 194 195 196 197 198 199 200 201 202 203 204 205 206 207 208 209 210 211 212 213 214 215 216 217 218 219 220 221 222 223 224 225 226 227 228 229 230 231 232 233 234 235 236 237 238 239 240 241 242 243 244 245 246 247 248 249 250 251 252 253 254 255 256 257 258 259 260 261 262 263 264 265 266 267 268 269 270 271 272 273 274 275 276 277 278 279 280 281 282 283 284 285 286 287 288 289 290 291 292 293 294 295 296 297 298 299 300 301 302 303 304 305 306 307 308 309 310 311 312 313 314 315 316 317 318 319 320 321 322 323 324 325 326 327 328 329 330 331 332 333 334 335 336 337 338 339 340 341 342 343 344 345 346 347 348 349 350 351 352 353 354 355 356 357 358 359 360 361 362 363 364 365 366 367 368 369 370 371 372 373 374 375 376 377 378 379 380 381 382 383 384 385 386 387 388 389 390 391 392 393 394 395 396 397 398 399 400 401 402 403 404 405 406 407 408 409 410 411 412 413 414 415 416 417 418 419 420 421 422 423 424 425 426 427 428 429 430 431 432 433 434 435 436 437 438 439 440 441 442 443 444 445 446 447 448 449 450 451 452 453 454 455 456 457 458 459 460 461 462 463 464 465 466 467 468 469 470 471 472 473 474 475 476 477 478 479 480 481 482 483 484 485 486 487 488 489 490 491 492 493 494 495 496 497 498 499 500 501 502 503 504 505 506 507 508 509 510 511 512 513 514 515 516 517 518 519 520 521 522 523 524 525 526 527 528 529 530 531 532 533 534 535 536 537 538 539 540 541 542 543 544 545 546 547 548 549 550 551 552 553 554 555 556 557 558 559 560 561 562 563 564 565 566 567 568 569 570 571 572 573 574 575 576 577 578 579 580 581 582 583 584 585 586 587 588 589 590 591 592 593 594 595 596 597 598 599 600 601 602 603 604 605 606 607 608 609 610 611 612 613 614 615 616 617 618 619 620 621 622 623 624 625 626 627 628 629 630 631 632 633 634 635 636 637 638 639 640 641 642 643 644 645 646 647 648 649 650 651 652 653 654 655 656 657 658 659 660 661 662 663 664 665 666 667 668 669 670 671 672 673 674 675 676 677 678 679 680 681 682 683 684 685 686 687 688 689 690 691 692 693 694 695 696 697 698 699 700 701 702 703 704 705 706 707 708 709 710 711 712 713 714 715 716 717 718 719 720 721 722 723 724 725 726 727 728 729 730 731 732 733 734 735 736 737 738 739 740 741 742 743 744 745 746 747 748 749 750 751 752 753 754 755 756 757 758 759 760 761 762 763 764 765 766 767 768 769 770 771 772 773 774 775 776 777 778 779 780 781 782 783 784 785 786 787 788 789 790 791 792 793 794 795 796 797 798 799 800 801 802 803 804 805 806 807 808 809 810 811 812 813 814 815 816 817 818 819 820 821 822 823 824 825 826 827 828 829 830 831 832 833 834 835 836 837 838 839 840 841 842 843 844 845 846 847 848 849 850 851 852 853 854 855 856 857 858 859 860 861 862 863 864 865 866 867 868 869 870 871 872 873 874 875 876 877 878 879 880 881 882 883 884 885 886 887 888 889 890 891 892 893 894 895 896 897 898 899 900 901 902 903 904 905 906 907 908 909 910 911 912 913 914 915 916 917 918 919 920 921 922 923 924 925 926 927 928 929 930 931 932 933 934 935 936 937 938 939 940 941 942 943 944 945 946 947 948 949 950 951 952 953 954 955 956 957 958 959 960 961 962 963 964 965 966 967 968 969 970 971 972 973 974 975 976 977 978 979 980 981 982 983 984 985 986 987 988 989 990 991 992 993 994 995 996 997 998 999 1000 1001 1002 1003 1004 1005 1006 1007 1008 1009 1010 1011 1012 1013 1014 1015 1016 1017 1018 1019 1020 1021 1022 1023 1024 1025 1026 1027 1028 1029 1030 1031 1032 1033 1034 1035 1036 1037 1038 1039 1040 1041 1042 1043 1044 1045 1046 1047 1048 1049 1050 1051 1052 1053 1054 1055 1056 1057 1058 1059 1060 1061 1062 1063 1064 1065 1066 1067 1068 1069 1070 1071 1072 1073 1074 1075 1076 1077 1078 1079 1080 1081 1082 1083 1084 1085 1086 1087 1088 1089 1090 1091 1092 1093 1094 1095 1096 1097 1098 1099 1100 1101 1102 
SCALARS res double 1
LOOKUP_TABLE default
4.8659431290339 11.818172230048 11.812972984397 8.7997438712877 7.3306258866064 10.540847143621 8.0843855262014 12.111878290929 8.2095840036574 8.094823932193 12.393852334118 8.7177797871625 11.22518963878 10.530126119614 7.7650593837968 12.166517585331 7.9487786389942 6.9715363641072 10.653407089895 12.381575511017 7.6831427937435 11.076752847438 7.282726446293 9.5911550781256 10.474134808065 8.4654676455833 12.042136186264 7.6853841809749 12.037419822301 3.548086956678 12.230320055321 13.32515570431 4.3663980834625 11.953394122563 9.3384418274761 10.114515439426 12.302203163253 10.579435814103 9.629949266901 13.48293273237 9.9353124852408 10.206857434683 12.520652033653 9.3840171439174 10.561682889067 11.935807078713 9.4965170921545 10.551352950871 8.8208672718665 5.5018358904324 11.687263649186 10.440785407334 9.5343141989727 11.828279468628 9.5360894266029 9.7205387153964 11.203410439671 8.9977833355609 11.127372887134 8.3882032668834 11.938714878836 8.7074339955366 12.587194219064 12.250914808009 10.161224240782 11.020621790313 10.947050810797 4.6465234489558 12.361736637099 11.258268746294 11.773981958168 11.148656800989 11.589947534551 13.337752923907 12.228398706748 11.393516564826 10.498804716149 10.824937611867 10.904823019203 10.622779809726 11.946475885745 11.613479062577 10.393891681341 10.249442023724 11.221918282336 11.702910418503 10.557327883081 9.6303423742238 10.878531559885 12.662144427695 12.313778421599 11.945068738924 10.139498152312 11.71938654993 10.5637065795 11.910297567313 11.786066378907 11.591980498389 12.033886447167 11.082157045587 11.797958958904 11.94740363069 12.576282690332 11.992755601464 13.095969107201 13.095110897014 10.781872715781 10.90026278966 12.547420036049 11.329667504633 13.106481682173 11.9896864517 12.942331640711 11.311130705165 11.732440081523 11.795483871202 13.314136048674 12.372670808795 13.592166138979 12.200166631463 11.63655389269 14.539771669749 11.786287712964 12.390663681161 11.03480044348 12.065227882434 11.522352497482 11.471589157174 11.810833132127 11.770598891335 13.189468649846 9.7190197463299 12.28865473519 10.122690846461 9.3854854116826 16.294092028186 11.430938092348 9.8181649808274 12.695214643641 8.2830895966532 9.0565591332039 10.886830399382 9.1685853945112 11.896485512439 15.773306191575 9.6124686059898 11.195271627492 10.102372325008 8.9927850869536 13.178887019633 12.842267203071 8.9584345440931 13.054387886158 7.2506279420027 8.0563025704208 11.901983926391 8.5805689356312 12.006820955721 7.60845295706 10.651134699451 8.8329755765549 12.766427375805 10.548493373772 7.1084923534326 11.858707686305 8.9824181768015 7.7162699010973 11.716450329417 12.583627439256 8.3740278037647 11.048711388668 8.0790404794611 7.0883441186522 8.3116918338527 10.792002622697 11.778830039111 10.722508765522 7.9086647138113 11.974895227167 8.6535672840922 8.3493700483067 13.176405417197 11.741124022642 5.2570923614423 11.502904771454 8.7797618489595 4.3609992112943 11.387493213592 7.9380725056188 10.261485999831 7.1122040001995 10.82322748695 10.956596093487 10.207274386175 12.054039707064 11.452672511249 10.899943464386 9.673035022618 10.909074689144 11.408309538579 10.772874359142 10.271633087035 10.781617212158 11.397495013111 10.800211115515 11.50904124209 10.399315179865 12.182903576195 12.772027290696 13.144723484354 12.829365777882 11.713385435596 11.254873830274 11.638162654322 12.265595038866 13.963187734949 11.554025660625 14.487375272688 10.362454990647 11.683943175083 13.044081918977 10.862914266113 13.250729884431 12.485002053766 12.263035965099 11.063312017152 10.809291421294 12.18422262446 11.790870471673 14.636745233111 12.998404911219 11.735192851699 11.029929701956 10.254742717803 11.266040937699 10.863712000641 10.80709994898 9.9476727988634 12.085057526246 9.7448661530744 10.259575056536 11.432508079443 11.664087287399 9.2076396753408 11.560294193264 11.106543668779 10.69622427299 10.970632486733 10.890180965679 12.675868449921 11.851642727154 13.076033965632 10.977701770739 9.8989247064325 9.8295228657834 11.406313283408 11.527460809858 11.051056330395 12.19161118535 12.360557103679 12.496558961984 6.0954093312065 10.391150764228 8.9552364112401 8.690228154755 12.267542803423 5.7647758531896 7.0454935438813 8.1726630201669 8.1881964791369 9.1639469354963 3.5740794759435 4.0515305017064 9.4965152954634 10.354926249933 6.0929368098992 10.360248555475 4.6633055140478 10.165630176366 6.354889238167 8.4000662770065 7.6092197276283 8.731819304193 4.8666359521754 3.349334881026 8.7204628704104 7.3321964210073 9.4813219628271 8.6196744981301 6.3286298099809 8.1448024623151 9.1670252488855 6.3427054939186 5.0709830699361 8.2247104206956 4.1282822062566 6.9910004115428 6.6730588137007 10.406154996474 6.3315500052541 9.1091456943166 9.918785928335 7.0325374023655 10.624229070718 7.9575647314436 5.5136662704426 10.785699720879 8.0895938565045 10.364187636843 9.8366491479768 8.1922614325843 3.1373852332255 9.0586116182711 4.4757914068945 9.4636425610974 9.4205251265104 6.8373464769189 4.3793091093798 4.2309999015518 4.8072481255227 9.3833001651393 5.8733753192329 8.8574230094767 4.6876604193222 7.7823106532771 6.2630836472792 4.2045798192972 6.247653850976 8.1708231428767 8.9863125967317 6.4114703141627 7.3119695293465 4.9676588247395 7.7035531075553 5.5368980785381 6.7299598994282 9.9441645529247 5.0520078112864 9.8691726671511 8.3736875052175 5.1968497331288 10.244999689806 7.441668364461 5.1196835354007 9.2328069817083 6.2954040988382 8.6941687352208 7.8512415013421 4.2763063600817 4.9444547135751 3.2362601850781 6.6780096224238 5.0811711758691 5.8171824052704 8.268087627587 6.7950736453674 5.0001403443549 6.388324739254 7.4582029729458 9.2332665780268 4.8711004176681 10.148701810103 5.6857912376566 4.8831181466811 8.2458178142207 4.6037765239904 7.4063208151219 9.604291246454 6.0160878999743 5.8628602283118 6.465248975391 3.2466434621249 3.3058257830363 7.0897235789189 8.5389556716534 8.3838848158904 4.4108049372467 3.7253813163207 5.8322400561556 8.1445702545837 5.2070894811845 4.222479482746 8.6221504812487 3.9890454669872 7.9204192633561 5.0279357224019 6.8724583028236 4.6981758060684 5.2241793173523 8.6446062807547 4.984727856395 4.7388278446143 7.8619407621556 5.6186263850645 7.6492983170665 6.0209889809039 3.7362205660882 7.9476758191587 4.6341593496412 2.9726678514854 3.5713513851689 4.9406630342135 4.6039190549404 6.2781046946267 7.0907099835283 7.4013142126013 9.0357261365762 8.0450536921846 5.436820136378 9.1585978843696 4.5775002435784 3.8094643201647 4.7255864921779 4.0739394482382 2.9496879549954 5.0942686463917 4.8336745859675 5.9103133898701 3.5574689361492 5.118584408582 6.1591985547424 4.0581726340904 4.2326684071332 7.6629870324572 4.3213242121599 4.2373797243283 3.7088052014154 3.2976338442959 4.6987225822507 7.993803844895 5.0802699072073 3.4386699375794 3.2206324169275 6.8864522077895 3.9066915604827 6.4644275943338 4.0960631160962 3.9079009208306 5.0782367750295 5.6756942331002 7.7203966911748 7.1010276148867 5.2516141282322 3.5135393931101 5.3264521425371 4.2572214192559 7.9243030125143 5.367247755981 5.7740168667864 3.2879627790121 5.7337209341706 3.7207377462017 4.8402027921279 4.5032556468655 7.1428349784329 4.1397558645128 3.6893241464123 3.2058661271336 6.9561577418807 4.2177987245945 2.7998187724307 3.1636011754212 6.7881286170178 3.9188874130983 3.2968960197225 3.8989770046043 2.7818545874448 2.8363004103311 4.0556198064812 3.3447356875307 3.0106284945805 4.2386199138792 3.6134853805429 3.9609561264289 3.100142117832 4.1151940936989 3.5948590735282 4.0771500326464 3.6389629144357 5.5401604087982 3.1494680242984 4.3060861444649 3.8854830677527 3.9149534684507 3.1963570002018 4.1036601284922 6.1424428748181 3.7701881883719 4.0304461952564 3.279947704839 3.2651634708228 4.2127843625541 3.9484163386266 5.0025078225285 3.0723604495411 3.4291927533946 4.2496370089 2.7468484080377 3.2037487096555 4.1167880955329 4.6627486070141 3.8066860756609 3.424797447604 4.1860514527356 3.5132187148621 2.9920741752399 3.8240545714726 4.2128006867082 3.8672549485633 3.1824046864129 4.1660708365488 3.2388735118842 4.8444578669602 3.9384528375284 3.6294124330951 3.0512346862511 3.7883992958963 3.1413669225002 3.0788112472686 2.86904961666 3.238334527686 3.4119663122257 3.9434570866819 2.9474902436092 3.5158145781301 3.0912600627077 3.5216042156667 3.2704137768511 3.1853527580581 3.1941445878988 3.1920764012147 3.9196245441022 3.4034156604023 3.2700312835823 3.0293169954635 4.1437119022062 3.1599560037625 2.8737738647954 3.1639302495363 3.2695100578523 2.8343162426227 3.7157725622922 3.2575848461501 2.9200341082006 3.3158853363921 3.1800070261087 3.3729467505528 3.0226759965633 3.2743593675069 3.1476841158499 2.9070455438045 2.9251255302375 3.7411112674417 2.8974494549896 4.1050712564592 3.0989225527574 2.9263609209128 2.9187284613967 2.9288210427015 2.9955423291654 2.9058965128214 2.8014693673212 2.8640678762389 3.2637990955813 3.7265570019241 2.908482653984 2.9377745396577 2.9792220596422 3.1091762064015 3.1048259154144 6.6254277612415 4.458594479276 3.1274300662298 3.0763439007807 3.1701117055237 4.2005454645327 4.1392244735874 3.1871506063207 2.8747442615735 2.9219044926389 12.083219308903 7.466665385287 8.5477189225513 10.11857899721 3.0438307457592 3.1879047351248 3.0109130425338 3.3233243732093 3.1551038785208 3.0352415496751 2.9089565629987 3.0501589924387 2.8561742199204 2.7588452134453 2.9268753065157 2.8229060038185 3.3765236234536 3.2150673427644 3.1123079682567 3.4772672463211 3.7061528739163 4.80096365586 2.8052675832287 2.9457534123026 2.9254889648522 3.1943464184973 2.954433599134 2.8822243715679 2.9378112592166 2.7418947190011 3.2842585143297 3.3252985773739 3.2179651161403 3.2146131280604 2.8538047856938 3.1271126745259 3.221656466103 3.7518030757582 2.8908579548685 3.1613199393919 3.3531198174599 3.1481272350968 3.4511270192354 3.3049660932762 3.4780998850315 3.0649052309173 2.9570553991123 2.8743640880224 2.903286870616 3.963555936587 2.9879101561103 2.8293517635037 3.3091581929692 3.0040530269746 3.04540072051 3.1174257859842 3.1903674608494 3.1199158340865 4.0673285002246 3.0209644061114 3.3270875519273 4.0677515323766 3.0550115794897 2.9813279257997 3.1136789125076 2.991385065997 3.2884295262656 3.4067764061522 3.5188087710822 3.4363483984309 3.2245811138386 3.8910351533169 3.1295614573413 3.2451911883843 3.0447495077443 3.2257417751061 3.307767130229 3.2824989399544 3.3851412683068 3.1354270084138 3.1249892483263 3.598111767287 2.9141046253279 2.7328411674391 3.4994414001032 3.1292526594412 3.7059528313781 3.9239468793979 3.7440945869954 2.9267195874329 3.8896434774582 3.9397971815501 3.3152661896612 3.2444047389253 3.0294558997073 3.713832048462 4.6506852623783 6.9934449773701 5.7436221090135 2.9665258612186 3.0680634952928 2.9840775386284 3.8565247409348 2.9181185184984 4.2573378295279 3.3435930059377 4.3707192242949 3.5120871266596 2.9758142952643 2.8927385802143 3.0023292599843 3.0281354166236 3.1562848791135 3.139904181472 4