# vtk DataFile Version 3.0
d-2__ created by libgimli-v1.0.12
ASCII
DATASET UNSTRUCTURED_GRID
POINTS 1518 double
-20	0	0
-20	-30	0
51.5	-30	0
51.5	0	0
-1	-6	0
-1	0	0
32.5	0	0
32.5	-6	0
0	0	0
0.035486447754857	-0.29192734590797	0
0.5	0	0
0.49168800161936	-0.33779324666852	0
1	0	0
1.0098345625828	-0.3439652231648	0
1.5	0	0
1.5178567837266	-0.32395162471943	0
2	0	0
1.9974543478462	-0.2903470507648	0
2.5	0	0
2.4762576706506	-0.32089110691344	0
3	0	0
2.980648500035	-0.33803194828154	0
3.5	0	0
3.4954605734238	-0.34284473776653	0
4	0	0
4.0089280452523	-0.34589964103206	0
4.5	0	0
4.5263412619625	-0.3491677975619	0
5	0	0
5.0411050225316	-0.34015074351289	0
5.5	0	0
5.5429841154786	-0.30910364551132	0
6	0	0
6.0357993292888	-0.29484105755896	0
6.5	0	0
6.5362730546814	-0.29852159285671	0
7	0	0
7.0371977769415	-0.28617244921474	0
7.5	0	0
7.5174787041427	-0.25926038276881	0
8	0	0
8.0041668287144	-0.28708962328194	0
8.5	0	0
8.5061154674857	-0.28498362459013	0
9	0	0
8.9893714804408	-0.25445947125445	0
9.5	0	0
9.4672458244814	-0.28177151862079	0
10	0	0
9.9723779138837	-0.3032801680271	0
10.5	0	0
10.494798616198	-0.31716782667255	0
11	0	0
11.010616273613	-0.3103356017585	0
11.5	0	0
11.502774742404	-0.28263951214807	0
12	0	0
11.99548212361	-0.30950018394928	0
12.5	0	0
12.511675723632	-0.31595266342813	0
13	0	0
13.03460634048	-0.30246259132499	0
13.5	0	0
13.539963790964	-0.28105957082063	0
14	0	0
14.016103004852	-0.25187744964903	0
14.5	0	0
14.495432809405	-0.27706555389595	0
15	0	0
14.998374190628	-0.28868160724406	0
15.5	0	0
15.509096591935	-0.2857353978479	0
16	0	0
16.008890205367	-0.27187038273013	0
16.5	0	0
16.487111265512	-0.25316416251607	0
17	0	0
16.971282188817	-0.300727306564	0
17.5	0	0
17.485042758216	-0.31165971320286	0
18	0	0
17.990973960263	-0.28050327057624	0
18.5	0	0
18.49026232633	-0.30761079753018	0
19	0	0
19.000221976857	-0.30233673029402	0
19.5	0	0
19.488415836336	-0.26556176314344	0
20	0	0
19.967674581038	-0.28772849063993	0
20.5	0	0
20.467369365388	-0.30233159961731	0
21	0	0
20.97363594939	-0.31092648704765	0
21.5	0	0
21.4785350505	-0.31964120692059	0
22	0	0
21.986091654451	-0.32987388792766	0
22.5	0	0
22.495507319955	-0.33455031230347	0
23	0	0
23.006254224637	-0.33539390118866	0
23.5	0	0
23.513400240183	-0.33358271723939	0
24	0	0
24.019362482387	-0.33021663421817	0
24.5	0	0
24.523237956951	-0.32129558491313	0
25	0	0
25.017008958257	-0.29874020296926	0
25.5	0	0
25.506391988699	-0.29922313969398	0
26	0	0
26.009126883683	-0.32815532934875	0
26.5	0	0
26.519754232125	-0.3289282338856	0
27	0	0
27.025381053085	-0.30837602499263	0
27.5	0	0
27.520953625254	-0.29202478045731	0
28	0	0
27.995583137268	-0.268915195384	0
28.5	0	0
28.47234092997	-0.30311683006864	0
29	0	0
28.977466419157	-0.32407322280468	0
29.5	0	0
29.494586815324	-0.33034783869313	0
30	0	0
30.003281486075	-0.32588623079301	0
30.5	0	0
30.501239522701	-0.31552423154075	0
31	0	0
31.002297044571	-0.31782113449608	0
31.5	0	0
31.455231000826	-0.26775032799679	0
15.75	-6	0
0.25	0	0
1.25	0	0
2.25	0	0
1.75	0	0
0.75	0	0
3.25	0	0
4.25	0	0
3.75	0	0
5.25	0	0
6.25	0	0
6.75	0	0
5.75	0	0
4.75	0	0
2.75	0	0
7.75	0	0
8.75	0	0
8.25	0	0
9.75	0	0
10.75	0	0
10.25	0	0
9.25	0	0
11.75	0	0
12.75	0	0
12.25	0	0
13.75	0	0
14.75	0	0
15.25	0	0
14.25	0	0
13.25	0	0
11.25	0	0
7.25	0	0
-0.5	0	0
15.75	0	0
16.25	0	0
17.25	0	0
16.75	0	0
18.25	0	0
19.25	0	0
18.75	0	0
17.75	0	0
20.25	0	0
21.25	0	0
20.75	0	0
22.25	0	0
23.25	0	0
23.75	0	0
22.75	0	0
21.75	0	0
19.75	0	0
24.75	0	0
25.75	0	0
25.25	0	0
26.75	0	0
26.25	0	0
27.75	0	0
28.75	0	0
28.25	0	0
29.75	0	0
30.75	0	0
31.25	0	0
30.25	0	0
29.25	0	0
27.25	0	0
24.25	0	0
32	0	0
-0.25	0	0
31.75	0	0
-1	-2	0
32.5	-2	0
-1	-1	0
32.5	-1	0
0.1535947871742	-0.92131262390942	0
31.321646213961	-0.80404678534671	0
7.375	-6	0
2.6692238429754	-0.92605209499826	0
12.243081906438	-0.88740363200964	0
14.723264531615	-0.79490366125032	0
17.166748655408	-0.92361495505941	0
20.144745640562	-0.81866619507525	0
24.125	-6	0
28.65479240249	-0.87873192386885	0
1.3164552929025	-0.93894665163731	0
30.736713929862	-0.83630753878251	0
6.8637541759332	-0.82476052777427	0
9.6383509807578	-0.80929733005301	0
2.1867633848997	-0.69306283677718	0
4.848712717906	-0.96725306891484	0
3.7550232431588	-0.93908348731388	0
13.381980490953	-0.80730796502564	0
12.809010661694	-0.7091575634689	0
11.711256974917	-0.67798691805475	0
14.230107959312	-0.59919932435842	0
15.795323335384	-0.77667564324577	0
15.260345797021	-0.65806614554049	0
16.658857375704	-0.61260689489252	0
18.744088688453	-0.89945419076476	0
17.765030202104	-0.67317075136151	0
19.672482277747	-0.62560844957396	0
22.223160002632	-0.91317072726564	0
21.184274197653	-0.85537965953753	0
20.684983056824	-0.69701465475579	0
26.294519420715	-0.95460329566353	0
29.760589588235	-0.90635936049084	0
29.219117731567	-0.75414312438863	0
28.177403141442	-0.64779767525726	0
0.74318492755688	-0.80841487667947	0
30.264874677952	-0.72722073546834	0
8.26734535398	-0.84171994950874	0
7.3428908850917	-0.61812722252436	0
6.3172993198252	-0.68147745541183	0
9.1702985197078	-0.60326185007872	0
10.77453899223	-0.89194275808074	0
10.206054535148	-0.71276811754859	0
1.8015846692246	-0.69579324562995	0
1.9358685567225	-1.9350439768645	0
4.2859114767518	-0.79020751092312	0
5.3699904740363	-0.75429611712475	0
3.2238580729454	-0.7774363500995	0
12.873938957132	-1.2298858355964	0
11.302372821581	-0.67877224743224	0
13.847317041418	-0.60169581605642	0
14.06077532018	-1.6747017794749	0
15.275063298912	-1.1403264803656	0
16.269832737757	-0.58309181402396	0
16.653626605559	-1.5986739338002	0
18.093284297521	-1.8754256325688	0
18.195391882481	-0.6682964810796	0
19.277755064458	-0.64140550717498	0
19.460384743682	-1.8156965669755	0
21.705711573406	-0.73892886136444	0
24.312668112034	-0.90239858786218	0
23.282011078439	-0.91559119787367	0
22.753552832292	-0.76007726969151	0
20.654528462103	-1.196144543539	0
25.74316311167	-0.71003993738961	0
27.327473354266	-0.82695513541024	0
26.808984815661	-0.70750588962851	0
29.206906025928	-1.3295420975924	0
27.797570234091	-0.63719410084217	0
0.74462834432522	-1.50103966239	0
30.321222850838	-1.2507436657683	0
7.6701870104866	-1.8002389246383	0
7.7379819466275	-0.6209705368721	0
5.8542678697503	-0.77277111822532	0
8.7815900376189	-0.60908396402527	0
8.9263214207108	-1.7145531222781	0
11.52557900515	-1.9846384065373	0
10.150119276387	-1.2405898701785	0
1.9896660193045	-1.2337344003881	0
4.2907535720725	-1.3495131031679	0
3.2191579999308	-1.3418823189349	0
14.068394957674	-1.0656390944278	0
13.50087088524	-1.4513478964454	0
14.733873794355	-1.5232319677105	0
16.3981706498	-0.99788327129213	0
15.843408571902	-1.4880437038192	0
17.9855606163	-1.1783189382681	0
19.482820991508	-1.1123832835523	0
21.656582750327	-1.2745844832793	0
24.814164983529	-0.71286124284027	0
23.786916547457	-0.74943986270261	0
22.761356579159	-1.298852489967	0
20.081622434665	-1.5043107391889	0
25.275588664844	-0.75330656495103	0
27.946615202612	-1.8342528317844	0
26.877519822345	-1.1159616647493	0
29.80996906135	-1.6219927885545	0
7.5579439543816	-1.0966403645996	0
5.5631841839308	-1.3803896966199	0
8.9745846350862	-1.0591669646771	0
12.288001931267	-1.7328342695496	0
11.512831015657	-1.2293359772178	0
9.5272527473721	-1.4589585091072	0
10.74510890623	-1.7496093358169	0
1.4093379088435	-1.6690837440036	0
2.6090349752916	-1.7802814541811	0
3.7617607030367	-1.6268017090733	0
18.519844973003	-1.4992018948379	0
21.135507163552	-1.4448201999303	0
23.807803873005	-1.2617481696056	0
22.204339317602	-1.6477813079694	0
24.942873357023	-1.2831532207977	0
28.561417297097	-1.6384597127912	0
27.965806423224	-1.1482967150656	0
27.294693294774	-1.5718259428645	0
8.0651451172334	-1.3944487813529	0
6.2966387550161	-1.214220036681	0
4.8643703643125	-1.805044555895	0
3.5025531105532	-2.6727741844373	0
19.9375	-6	0
18.997105888679	-1.4779948291773	0
23.34678798383	-1.6597219966835	0
26.105600846311	-1.7105882908965	0
25.630462591071	-1.2099196378545	0
24.296200924496	-1.6460580087223	0
7.9828848426794	-2.4271213848398	0
8.5105910545535	-1.373682247669	0
18.776720184298	-2.0601000924927	0
8.3193461619293	-1.8556025527547	0
19.937667369612	-2.9848363610318	0
8.7608059519215	-2.4205104333747	0
11.084373764624	-2.5582769806693	0
16.116827961294	-2.7944626895033	0
30.596407006058	-2.3117899793055	0
26.734499818846	-2.2139867122319	0
6.2233496719717	-2.0502653341538	0
6.9581952983689	-1.5723308289351	0
4.2293390300104	-1.9685523496848	0
2.24552423078	-2.5838504253428	0
6.4745641993641	-3.7799345983804	0
4.5720678806472	-2.89725106896	0
23.824237402438	-1.6875810099364	0
23.147717905815	-2.3756309917815	0
24.16957156351	-2.7006496666696	0
14.400044801647	-2.1775797923409	0
13.598996521631	-2.1399256717619	0
10.671170565718	-3.2667298401606	0
16.171339323802	-2.0934907398717	0
30.345288892899	-1.809205816926	0
27.82557187722	-3.0350644354507	0
7.1373703529751	-2.4451757110518	0
11.229473505403	-3.8163561011759	0
9.7340606277959	-3.4142460353004	0
15.315056685716	-2.2072831484728	0
16.92453690772	-2.3701302188056	0
27.548695467423	-2.3420774858347	0
31.006435316593	-1.6001128508336	0
29.700853704493	-2.8788088971404	0
11.99792406261	-2.6448304347479	0
28.359416794109	-2.4617334237209	0
28.3125	-6	0
13.576453470301	-3.4132577258773	0
-0.43218242690248	-0.49312037456786	0
31.906807038705	-0.48408298450773	0
-0.042808875053782	-1.779948148129	0
20.050976081265	-2.2270498271997	0
19.368403406356	-2.5026055882764	0
20.760816186432	-2.6970704320887	0
10.159142196361	-2.5210217610605	0
12.841848125352	-2.3614035201837	0
32.5	-4	0
18.9379971752	-3.8238384521568	0
31.820346353958	-1.3164275058994	0
18.21052794881	-2.5229659572416	0
8.3195707966249	-2.9374943676959	0
7.6899258520572	-3.0946221745582	0
11.407516095864	-3.1759240873328	0
11.5625	-6	0
12.054546590196	-3.5904446256227	0
10.412814205623	-4.1075561983556	0
3.1875	-6	0
8.2386154873199	-4.3917415581003	0
9.46875	-6	0
28.74929792818	-3.7129467680644	0
29.23220101267	-2.1731647378038	0
19.19841144636	-3.2034336261106	0
[...]
CELL_DATA 2811
SCALARS _Attribute double 1
LOOKUP_TABLE default
0 0 0 0 0 0 0 0 0 0 0 0 0 0 0 0 0 0 0 0 0 0 0 0 0 0 0 0 0 0 0 0 0 0 0 0 0 0 0 0 0 0 0 0 0 0 0 0 0 0 0 0 0 0 0 0 0 0 0 0 0 0 0 0 0 0 0 0 0 0 0 0 0 0 0 0 0 0 0 0 0 0 0 0 0 0 0 0 0 0 0 0 0 0 0 0 0 0 0 0 0 0 0 0 0 0 0 0 0 0 0 0 0 0 0 0 0 0 0 0 0 0 0 0 0 0 0 0 0 0 0 0 0 0 0 0 0 0 0 0 0 0 0 0 0 0 0 0 0 0 0 0 0 0 0 0 0 0 0 0 0 0 0 0 0 0 0 0 0 0 0 0 0 0 0 0 0 0 0 0 0 0 0 0 0 0 0 0 0 0 0 0 0 0 0 0 0 0 0 0 0 0 0 0 0 0 0 0 0 0 0 0 0 0 0 0 0 0 0 0 0 0 0 0 0 0 0 0 0 0 0 0 0 0 0 0 0 0 0 0 0 0 0 0 0 0 0 0 0 0 0 0 0 0 0 0 0 0 0 0 0 0 0 0 0 0 0 0 0 0 0 0 0 0 0 0 0 0 0 0 0 0 0 0 0 0 0 0 0 0 0 0 0 0 0 0 0 0 0 0 0 0 0 0 0 0 0 0 0 0 0 0 0 0 0 0 0 0 0 0 0 0 0 0 0 0 0 0 0 0 0 0 0 0 0 0 0 0 0 0 0 0 0 0 0 0 0 0 0 0 0 0 0 0 0 0 0 0 0 0 0 0 0 0 0 0 0 0 0 0 0 0 0 0 0 0 0 0 0 0 0 0 0 0 0 0 0 0 0 0 0 0 0 0 0 0 0 0 0 0 0 0 0 0 0 0 0 0 0 0 0 0 0 0 0 0 0 0 0 0 0 0 0 0 0 0 0 0 0 0 0 0 0 0 0 0 0 0 0 0 0 0 0 0 0 0 0 0 0 0 0 0 0 0 0 0 0 0 0 0 0 0 0 0 0 0 0 0 0 0 0 0 0 0 0 0 0 0 0 0 0 0 0 0 0 0 0 0 0 0 0 0 0 0 0 0 0 0 0 0 0 0 0 0 0 0 0 0 0 0 0 0 0 0 0 0 0 0 0 0 0 0 0 0 0 0 0 0 0 0 0 0 0 0 0 0 0 0 0 0 0 0 0 0 0 0 0 0 0 0 0 0 0 0 0 0 0 0 0 0 0 0 0 0 0 0 0 0 0 0 0 0 0 0 0 0 0 0 0 0 0 0 0 0 0 0 0 0 0 0 0 0 0 0 0 0 0 0 0 0 0 0 0 0 0 0 0 0 0 0 0 0 0 0 0 0 0 0 0 0 0 0 0 0 0 0 0 0 0 0 0 0 0 0 0 0 0 0 0 0 0 0 0 0 0 0 0 0 0 0 0 0 0 0 0 0 0 0 0 0 0 0 0 0 0 0 0 0 0 0 0 0 0 0 0 0 0 0 0 0 0 0 0 0 0 0 0 0 0 0 0 0 0 0 0 0 0 0 0 0 0 0 0 0 0 0 0 0 0 0 0 0 0 0 0 0 0 0 0 0 0 0 0 0 0 0 0 0 0 0 0 0 0 0 0 0 0 0 0 0 0 0 0 0 0 0 0 0 0 0 0 0 0 0 0 0 0 0 0 0 0 0 0 0 0 0 0 0 0 0 0 0 0 0 0 0 0 0 0 0 0 0 0 0 0 0 0 0 0 0 0 0 0 0 0 0 0 0 0 0 0 0 0 0 0 0 0 0 0 0 0 0 0 0 0 0 0 0 0 0 0 0 0 0 0 0 0 0 0 0 0 0 0 0 0 0 0 0 0 0 0 0 0 0 0 0 0 0 0 0 0 0 0 0 0 0 0 0 0 0 0 0 0 0 0 0 0 0 0 0 0 0 0 0 0 0 0 0 0 0 0 0 0 0 0 0 0 0 0 0 0 0 0 0 0 0 0 0 0 0 0 0 0 0 0 0 0 0 0 0 0 0 0 0 0 0 0 0 0 0 0 0 0 0 0 0 0 0 0 0 0 0 0 0 0 0 0 0 0 0 0 0 0 0 0 0 0 0 0 0 0 0 0 0 0 0 0 0 0 0 0 0 0 0 0 0 0 0 0 0 0 0 0 0 0 0 0 0 0 0 0 0 0 0 0 0 0 0 0 0 0 0 0 0 0 0 0 0 0 0 0 0 0 0 0 0 0 0 0 0 0 0 0 0 0 0 0 0 0 0 0 0 0 0 0 0 0 0 0 0 0 0 0 0 0 0 0 0 0 0 0 0 0 0 0 0 0 0 0 0 0 0 0 0 0 0 0 0 0 0 0 0 0 0 0 0 0 0 0 0 0 0 0 0 0 0 0 0 0 0 0 0 0 0 0 0 0 0 0 0 0 0 0 0 0 0 0 0 0 0 0 0 0 0 0 0 0 0 0 0 0 0 0 0 0 0 0 0 0 0 0 0 0 0 0 0 0 0 0 0 0 0 0 0 0 0 0 0 0 0 0 0 0 0 0 0 0 0 0 0 0 0 0 0 0 0 0 0 0 0 0 0 0 0 0 0 0 0 0 0 0 0 0 0 0 0 0 0 0 0 0 0 0 0 0 0 0 0 0 0 0 0 0 0 0 0 0 0 0 0 0 0 0 0 0 0 0 0 0 0 0 0 0 0 0 0 0 0 0 0 0 0 0 0 0 0 0 0 0 0 0 0 0 0 0 0 0 0 0 0 0 0 0 0 0 0 0 0 0 0 0 0 0 0 0 0 0 0 0 0 0 0 0 0 0 0 0 0 0 0 0 0 0 0 0 0 0 0 0 0 0 0 0 0 0 0 0 0 0 0 0 0 0 0 0 0 0 0 0 0 0 0 0 0 0 0 0 0 0 0 0 0 0 0 0 0 0 0 0 0 0 0 0 0 0 0 0 0 0 0 0 0 0 0 0 0 0 0 0 0 0 0 0 0 0 0 0 0 0 0 0 0 0 0 0 0 0 0 0 0 0 0 0 0 0 0 0 0 0 0 0 0 0 0 0 0 0 0 0 0 0 0 0 0 0 0 0 0 0 0 0 0 0 0 0 0 0 0 0 0 0 0 0 0 0 0 0 0 0 0 0 0 0 0 0 0 0 0 0 0 0 0 0 0 0 0 0 0 0 0 0 0 0 0 0 0 0 0 0 0 0 0 0 0 0 0 0 0 0 0 0 0 0 0 0 0 0 0 0 0 0 0 0 0 0 0 0 0 0 0 0 0 0 0 0 0 0 0 0 0 0 0 0 0 0 0 0 0 0 0 0 0 0 0 0 0 0 0 0 0 0 0 0 0 0 0 0 0 0 0 0 0 0 0 0 0 0 0 0 0 0 0 0 0 0 0 0 0 0 0 0 0 0 0 0 0 0 0 0 0 0 0 0 0 0 0 0 0 0 0 0 0 0 0 0 0 0 0 0 0 0 0 0 0 0 0 0 0 0 0 0 0 0 0 0 0 0 0 0 0 0 0 0 0 0 0 0 0 0 0 0 0 0 0 0 0 0 0 0 0 0 0 0 0 0 0 0 0 0 0 0 0 0 0 0 0 0 0 0 0 0 0 0 0 0 0 0 0 0 0 0 0 0 0 0 0 0 0 0 0 0 0 0 0 0 0 0 0 0 0 0 0 0 0 0 0 0 0 0 0 0 0 0 0 0 0 0 0 0 0 0 0 0 0 0 0 0 0 0 0 0 0 0 0 0 0 0 0 0 0 0 0 0 0 0 0 0 0 0 0 0 0 0 0 0 0 0 0 0 0 0 0 0 0 0 0 0 0 0 0 0 0 0 0 0 0 0 0 0 0 0 0 0 0 0 0 0 0 0 0 0 0 0 0 0 0 0 0 0 0 0 0 0 0 0 0 0 0 0 0 0 0 0 0 0 0 0 0 0 0 0 0 0 0 0 0 0 0 0 0 0 0 0 0 0 0 0 0 0 0 0 0 0 0 0 0 0 0 0 0 0 0 0 0 0 0 0 0 0 0 0 0 0 0 0 0 0 0 0 0 0 0 0 0 0 0 0 0 0 0 0 0 0 0 0 0 0 0 0 0 0 0 0 0 0 0 0 0 0 0 0 0 0 0 0 0 0 0 0 0 0 0 0 0 0 0 0 0 0 0 0 0 0 0 0 0 0 0 0 0 0 0 0 0 0 0 0 0 0 0 0 0 0 0 0 0 0 0 0 0 0 0 0 0 0 0 0 0 0 0 0 0 0 0 0 0 0 0 0 0 0 0 0 0 0 0 0 0 0 0 0 0 0 0 0 0 0 0 0 0 0 0 0 0 0 0 0 0 0 0 0 0 0 0 0 0 0 0 0 0 0 0 0 0 0 0 0 0 0 0 0 0 0 0 0 0 0 0 0 0 0 0 0 0 0 0 0 0 0 0 0 0 0 0 0 0 0 0 0 0 0 0 0 0 0 0 0 0 0 0 0 0 0 0 0 0 0 0 0 0 0 0 0 0 0 0 0 0 0 0 0 0 0 0 0 0 0 0 0 0 0 0 0 0 0 0 0 0 0 0 0 0 0 0 0 0 0 0 0 0 0 0 0 0 0 0 0 0 0 0 0 0 0 0 0 0 0 0 0 0 0 0 0 0 0 0 0 0 0 0 0 0 0 0 0 0 0 0 0 0 0 0 0 0 0 0 0 0 0 0 0 0 0 0 0 0 0 0 0 0 0 0 0 0 0 0 0 0 0 0 0 0 0 0 0 0 0 0 0 0 0 0 0 0 0 0 0 0 0 0 0 0 0 0 0 0 0 0 0 0 0 0 0 0 0 0 0 0 0 0 0 0 0 0 0 0 0 0 0 0 0 0 0 0 0 0 0 0 0 0 0 0 0 0 0 0 0 0 0 0 0 0 0 0 0 0 0 0 0 0 0 0 0 0 0 0 0 0 0 0 0 0 0 0 0 0 0 0 0 0 0 0 0 0 0 0 0 0 0 0 0 0 0 0 0 0 0 0 0 0 0 0 0 0 0 0 0 0 0 0 0 0 0 0 0 0 0 0 0 0 0 0 0 0 0 0 0 0 0 0 0 0 0 0 0 0 0 0 0 0 0 0 0 0 0 0 0 0 0 0 0 0 0 0 0 0 0 0 0 0 0 0 0 0 0 0 0 0 0 0 0 0 0 0 0 0 0 0 0 0 0 0 0 0 0 0 0 0 0 0 0 0 0 0 0 0 0 0 0 0 0 0 0 0 0 0 0 0 0 0 0 0 0 0 0 0 0 0 0 0 0 0 0 0 0 0 0 0 0 0 0 0 0 0 0 0 0 0 0 0 0 0 0 0 0 0 0 0 0 0 0 0 0 0 0 0 0 0 0 0 0 0 0 0 0 0 0 0 0 0 0 0 0 0 0 0 0 0 0 0 0 0 0 0 0 0 0 0 0 0 0 0 0 0 0 0 0 0 0 0 0 0 0 0 0 0 0 0 0 0 0 0 0 0 0 0 0 0 0 0 0 0 0 0 0 0 0 0 0 0 0 0 0 0 0 0 0 0 0 0 0 0 0 0 0 0 0 0 0 0 0 0 0 0 0 0 0 0 0 0 0 0 0 0 0 0 0 0 0 0 0 0 0 0 0 0 0 0 0 0 0 0 0 0 0 0 0 0 0 0 0 0 0 0 0 0 0 0 0 0 0 0 0 0 0 0 0 0 0 0 0 0 0 0 0 0 0 0 0 0 0 0 0 0 0 0 0 0 0 0 0 0 0 0 0 0 0 0 0 0 0 0 0 0 0 0 0 0 0 0 0 0 0 0 0 0 0 0 0 0 0 0 0 0 0 0 0 0 0 0 0 0 0 0 0 0 0 0 0 0 0 0 0 0 0 0 0 0 0 0 0 0 0 0 0 0 0 0 0 0 0 0 0 0 0 0 0 0 0 0 0 0 0 0 0 0 0 0 0 0 0 0 0 0 0 0 0 0 0 0 0 0 0 0 0 0 0 0 0 0 0 0 0 0 0 0 0 0 0 0 0 0 0 0 0 0 0 0 0 0 0 0 0 0 0 0 0 0 0 0 0 0 0 0 0 0 0 0 0 0 0 0 0 0 0 0 0 0 0 0 0 0 0 0 0 0 0 0 0 0 0 0 0 0 0 0 0 0 0 0 0 0 0 0 0 0 0 0 0 0 0 0 0 0 0 0 0 0 0 0 0 0 0 0 0 0 0 0 0 0 0 0 0 0 0 0 0 0 0 0 0 0 0 0 0 0 0 0 0 0 0 
SCALARS _Marker double 1
LOOKUP_TABLE default
1 2 2 2 2 2 2 2 2 2 2 2 2 2 2 2 2 2 2 2 2 2 2 2 2 2 2 2 2 2 2 2 2 2 2 2 2 2 2 2 2 2 2 2 2 2 2 2 2 2 2 2 2 2 2 2 2 2 2 2 2 2 2 2 1 2 2 1 2 2 2 2 2 2 2 2 2 2 2 2 2 2 2 2 2 2 2 2 2 2 2 2 2 2 2 2 2 2 2 2 2 2 2 2 2 2 2 2 2 2 2 2 2 2 2 2 2 2 2 2 2 2 2 2 2 2 2 2 2 2 2 2 2 1 2 2 2 2 2 2 2 2 2 2 2 2 2 2 2 2 2 2 2 2 2 2 2 2 2 2 2 2 2 2 2 2 2 2 2 2 2 2 2 2 2 2 2 2 2 2 2 2 2 2 2 2 2 2 2 2 2 2 2 2 2 2 1 2 1 2 2 2 2 2 2 2 2 2 2 2 2 2 2 2 2 2 2 2 2 2 2 2 2 2 2 2 2 2 2 2 2 2 2 2 2 2 2 2 2 2 2 2 2 2 2 2 2 2 2 2 2 2 2 2 2 2 1 2 2 2 2 2 2 2 2 2 2 2 2 2 1 1 1 2 1 2 2 2 2 2 2 2 1 2 2 2 2 2 2 2 2 2 2 2 1 2 1 2 2 2 2 2 2 2 2 2 2 2 2 2 2 2 2 2 2 2 2 2 2 2 2 2 2 2 2 2 2 2 2 2 2 2 2 2 2 2 2 2 2 2 2 2 2 2 2 2 2 2 2 2 2 2 2 2 2 2 2 2 2 2 2 2 2 2 2 2 2 2 2 2 2 2 2 2 2 2 2 2 2 2 2 2 2 2 2 2 2 2 2 2 2 2 2 2 2 2 2 2 2 2 2 2 2 2 2 2 2 2 2 2 2 2 2 2 2 2 2 2 2 2 2 2 2 2 2 2 2 2 2 2 2 2 2 2 2 2 2 2 2 2 2 2 2 2 2 2 2 2 2 2 2 2 2 2 2 2 2 2 2 1 2 2 2 2 2 2 2 2 2 2 2 2 2 2 2 2 2 2 2 2 2 2 2 2 2 2 2 2 2 2 2 2 2 2 2 2 2 2 2 2 2 2 2 2 2 2 2 2 2 2 2 2 2 2 2 2 2 2 2 2 2 2 2 2 2 2 2 2 2 2 2 2 2 1 2 2 2 2 2 2 2 2 2 2 2 2 2 2 2 2 2 2 2 2 2 2 2 2 2 2 2 2 2 2 2 1 2 2 2 2 2 2 2 2 2 2 2 2 2 2 2 2 2 2 2 2 2 1 2 2 2 1 2 2 2 2 2 2 2 2 2 2 2 2 2 2 2 2 2 2 2 2 2 2 2 2 2 2 2 2 2 2 2 2 2 2 2 2 2 2 2 2 2 2 2 1 2 2 2 2 2 2 2 2 2 2 2 2 2 2 2 2 2 2 2 2 2 2 2 2 2 2 2 2 2 1 2 2 2 2 2 2 2 2 2 2 2 2 2 2 2 2 2 2 2 2 2 2 2 2 2 2 2 2 2 1 2 2 2 2 2 2 2 2 1 2 2 2 2 2 2 2 2 2 2 2 2 2 2 2 2 2 2 1 2 2 2 2 2 2 2 2 2 2 2 2 2 2 2 2 2 2 2 2 2 2 2 2 2 2 2 1 2 2 2 2 2 2 1 2 2 2 2 2 2 2 1 2 2 2 2 2 2 2 2 2 2 2 2 2 2 2 2 2 2 2 2 2 2 2 2 2 2 2 2 2 2 1 2 2 2 2 2 2 2 2 2 2 2 2 2 2 2 2 2 2 2 2 1 2 2 2 2 2 2 1 2 2 1 2 2 2 2 2 2 2 2 2 2 2 2 2 2 2 2 2 2 2 2 2 2 2 2 2 2 2 2 2 2 2 2 2 2 2 2 2 1 2 2 2 2 2 2 2 2 2 2 2 2 2 1 2 2 2 2 2 2 2 2 2 2 2 1 2 2 2 2 2 2 2 2 2 2 2 2 2 2 2 1 2 2 2 2 2 2 2 2 2 2 2 2 2 1 2 2 2 1 2 2 2 2 2 2 2 2 1 2 2 1 2 2 2 2 1 2 2 2 2 1 2 2 2 2 2 2 2 2 2 2 2 2 2 2 2 2 2 2 2 2 2 2 2 2 1 2 2 2 2 1 2 2 2 2 2 2 2 2 2 2 2 2 2 2 2 2 2 2 2 2 2 2 2 2 2 1 2 2 2 2 2 2 2 2 2 2 2 2 2 2 2 2 2 2 2 2 2 2 2 2 2 2 2 1 2 2 1 1 1 1 1 1 1 1 1 1 2 2 2 2 2 2 2 2 1 2 2 2 2 2 1 1 1 1 1 1 1 1 1 1 2 2 2 2 2 2 2 1 2 2 1 1 1 1 1 1 1 1 1 1 2 2 2 2 2 2 1 1 2 2 2 2 2 2 2 2 2 2 2 1 2 2 1 1 1 1 1 1 1 1 1 1 1 1 2 2 2 2 2 2 2 2 2 2 2 2 2 2 2 2 2 2 2 2 2 1 2 2 1 1 2 2 1 1 1 1 1 1 1 1 2 2 2 1 2 2 2 2 2 2 2 2 2 2 2 2 2 2 2 2 2 2 2 2 2 2 2 2 2 2 2 2 2 2 2 2 2 2 2 2 2 2 2 2 2 1 1 2 2 2 1 1 1 1 1 1 1 1 1 1 1 1 1 1 1 1 1 1 1 1 1 1 1 1 1 1 1 1 1 1 1 1 1 1 1 1 1 1 1 1 1 1 1 1 1 1 1 1 1 1 1 1 1 1 1 1 1 1 1 1 1 1 1 1 1 1 1 1 1 1 1 1 1 1 1 1 1 1 1 1 1 1 1 1 1 1 1 1 1 1 1 1 1 1 1 1 1 1 1 1 1 1 1 1 1 1 1 1 1 1 1 1 1 1 1 1 1 1 1 1 1 1 1 1 1 1 1 1 1 1 1 1 1 1 1 1 1 1 1 1 1 1 1 1 1 1 1 1 1 1 1 1 1 1 1 1 1 1 1 1 1 1 1 1 1 1 1 1 1 1 1 1 1 1 1 1 1 1 1 1 1 1 1 1 1 1 1 1 1 1 1 1 1 1 1 1 1 1 1 1 1 1 1 1 1 1 1 1 1 1 1 1 1 1 1 1 1 1 1 1 1 1 1 1 1 1 1 1 1 1 1 1 1 1 1 1 1 1 1 1 1 1 1 1 1 1 1 1 1 1 1 1 1 1 1 1 1 1 1 1 1 1 1 1 1 1 1 1 1 1 1 1 1 1 1 1 1 1 1 1 1 1 1 1 1 1 1 1 1 1 1 1 1 1 1 1 1 1 1 1 1 1 1 1 1 1 1 1 1 1 1 1 1 1 1 1 1 1 1 1 1 1 1 1 1 1 1 1 1 1 1 1 1 1 1 1 1 1 1 1 1 1 1 1 1 1 1 1 1 1 1 1 1 1 1 1 1 1 1 1 1 1 1 1 1 1 1 1 1 1 1 1 1 1 1 1 1 1 1 1 1 1 1 1 1 1 1 1 1 1 1 1 1 1 1 1 1 1 1 1 1 1 1 1 1 1 1 1 1 1 1 1 1 1 1 1 1 1 1 1 1 1 1 1 1 1 1 1 1 1 1 1 1 1 1 1 1 1 1 1 1 1 1 1 1 1 1 1 1 1 1 1 1 1 1 1 1 1 1 1 1 1 1 1 1 1 1 1 1 1 1 1 1 1 1 1 1 1 1 1 1 1 1 1 1 1 1 1 1 1 1 1 1 1 1 1 1 1 1 1 1 1 1 1 1 1 1 1 1 1 1 1 1 1 1 1 1 1 1 1 1 1 1 1 1 1 1 1 1 1 1 1 1 1 1 1 1 1 1 1 1 1 1 1 1 1 1 1 1 1 1 1 1 1 1 1 1 1 1 1 1 1 1 1 1 1 1 1 1 1 1 1 1 1 1 1 1 1 1 1 1 1 1 1 1 1 1 1 1 1 1 1 1 1 1 1 1 1 1 1 1 1 1 1 1 1 1 1 1 1 1 1 1 1 1 1 1 1 1 1 1 1 1 1 1 1 1 1 1 1 1 1 1 1 1 1 1 1 1 1 1 1 1 1 1 1 1 1 1 1 1 1 1 1 1 1 1 1 1 1 1 1 1 1 1 1 1 1 1 1 1 1 1 1 1 1 1 1 1 1 1 1 1 1 1 1 1 1 1 1 1 1 1 1 1 1 1 1 1 1 1 1 1 1 1 1 1 1 1 1 1 1 1 1 1 1 1 1 1 1 1 1 1 1 1 1 1 1 1 1 1 1 1 1 1 1 1 1 1 1 1 1 1 1 1 1 1 1 1 1 1 1 1 1 1 1 1 1 1 1 1 1 1 1 1 1 1 1 1 1 1 1 1 1 1 1 1 1 1 1 1 1 1 1 1 1 1 1 1 1 1 1 1 1 1 1 1 1 1 1 1 1 1 1 1 1 1 1 1 1 1 1 1 1 1 1 1 1 1 1 1 1 1 1 1 1 1 1 1 1 1 1 1 1 1 1 1 1 1 1 1 1 1 1 1 1 1 1 1 1 1 1 1 1 1 1 1 1 1 1 1 1 1 1 1 1 1 1 1 1 1 1 1 1 1 1 1 1 1 1 1 1 1 1 1 1 1 1 1 1 1 1 1 1 1 1 1 1 1 1 1 1 1 1 1 1 1 1 1 1 1 1 1 1 1 1 1 1 1 1 1 1 1 1 1 1 1 1 1 1 1 1 1 1 1 1 1 1 1 1 1 1 1 1 1 1 1 1 1 1 1 1 1 1 1 1 1 1 1 1 1 1 1 1 1 1 1 1 1 1 1 1 1 1 1 1 1 1 1 1 1 1 1 1 1 1 1 1 1 1 1 1 1 1 1 1 1 1 1 1 1 1 1 1 1 1 1 1 1 1 1 1 1 1 1 1 1 1 1 1 1 1 1 1 1 1 1 1 1 1 1 1 1 1 1 1 1 1 1 1 1 1 1 1 1 1 1 1 1 1 1 1 1 1 1 1 1 1 1 1 1 1 1 1 1 1 1 1 1 1 1 1 1 1 1 1 1 1 1 1 1 1 1 1 1 1 1 1 1 1 1 1 1 1 1 1 1 1 1 1 1 1 1 1 1 1 1 1 1 1 1 1 1 1 1 1 1 1 1 1 1 1 1 1 1 1 1 1 1 1 1 1 1 1 1 1 1 1 1 1 1 1 1 1 1 1 1 1 1 1 1 1 1 1 1 1 1 1 1 1 1 1 1 1 1 1 1 1 1 1 1 1 1 1 1 1 1 1 1 1 1 1 1 1 1 1 1 1 1 1 1 1 1 1 1 1 1 1 1 1 1 1 1 1 1 1 1 1 1 1 1 1 1 1 1 1 1 1 1 1 1 1 1 1 1 1 1 1 1 1 1 1 1 1 1 1 1 1 1 1 1 1 1 1 1 1 1 1 1 1 1 1 1 1 1 1 1 1 1 1 1 1 1 1 1 1 1 1 1 1 1 1 1 1 1 1 1 1 1 1 1 1 1 1 1 1 1 1 1 1 1 1 1 1 1 1 1 1 1 1 1 1 1 1 1 1 1 1 1 1 1 1 1 1 1 1 1 1 1 1 1 1 1 1 1 1 1 1 1 1 1 1 1 1 1 1 1 1 1 1 1 1 1 1 1 1 1 1 1 1 1 1 1 1 1 1 1 1 1 1 1 1 1 1 1 1 1 1 1 1 1 1 1 1 1 1 1 1 1 1 1 1 1 1 1 1 1 1 1 1 1 1 1 1 1 1 1 1 1 1 1 1 1 1 1 1 1 1 1 1 1 1 1 1 1 1 1 1 1 1 1 1 1 1 1 1 1 1 1 1 1 1 1 1 1 1 1 1 1 1 1 1 1 1 1 1 1 1 1 1 1 1 1 1 1 1 1 1 1 1 1 1 1 1 1 1 1 1 1 1 1 1 1 1 1 1 1 1 1 1 1 1 1 1 1 1 1 1 1 1 1 1 1 1 1 1 1 1 1 1 1 1 1 1 1 1 1 1 1 1 1 1 1 1 1 1 1 1 1 1 1 1 1 1 1 1 1 1 1 1 1 1 1 1 1 1 1 1 1 1 1 1 1 1 1 1 1 1 1 1 1 1 1 1 1 1 1 1 1 1 1 1 1 1 1 1 1 1 1 1 1 1 1 1 1 1 1 1 1 1 1 1 1 1 1 1 1 1 1 1 1 1 1 1 1 1 1 1 1 1 1 1 
POINT_DATA 1518
